/*--------------------------------*- C++ -*----------------------------------*\
| =========                 |                                                 |
| \\      /  F ield         | OpenFOAM: The Open Source CFD Toolbox           |
|  \\    /   O peration     | Version:  2212                                  |
|   \\  /    A nd           | Website:  www.openfoam.com                      |
|    \\/     M anipulation  |                                                 |
\*---------------------------------------------------------------------------*/
FoamFile
{
    version     2.0;
    format      ascii;
    arch        "LSB;label=32;scalar=64";
    class       volScalarField;
    location    "150";
    object      epsilon;
}
// * * * * * * * * * * * * * * * * * * * * * * * * * * * * * * * * * * * * * //

dimensions      [0 2 -3 0 0 0 0];

internalField   nonuniform List<scalar> 
12225
(
1085.71
2467.78
3645.43
4414.76
4812.17
4980.59
4975.43
4926.68
4840.97
4729.45
4621.16
4517.77
4426.19
4340.44
4269.97
4199.91
4152.2
4087.87
81.2296
262.517
438.548
584.487
691.145
762.774
805.005
829.519
846.92
856.603
866.714
873.327
882.968
890.493
900.254
909.802
916.814
933.301
20.5781
51.1715
83.4789
112.52
136.942
156.16
170.183
179.836
186.403
190.719
193.502
195.546
196.847
198.29
199.292
200.654
202.406
205.887
14.758
21.8684
30.0239
38.4937
46.2243
53.0262
58.6308
63.2482
66.7604
69.6301
71.6111
73.3149
74.3094
75.3127
75.7415
76.2693
76.6422
77.3986
14.361
16.3339
18.4583
21.4841
24.4416
27.258
29.7388
31.9788
33.8197
35.4742
36.744
37.9206
38.7414
39.5647
40.0548
40.6125
40.9412
41.318
14.6446
14.9542
15.4281
16.4552
17.6102
18.8276
19.9705
21.0754
22.0338
22.9463
23.689
24.4129
24.9546
25.5233
25.8899
26.3393
26.577
26.9532
14.7183
14.6387
14.6738
14.8757
15.2179
15.6829
16.163
16.6719
17.1383
17.6101
18.0101
18.4196
18.7376
19.0861
19.3199
19.6181
19.7788
20.0593
14.7545
14.5906
14.4692
14.4209
14.4418
14.5152
14.6477
14.8245
15.0023
15.202
15.3791
15.5756
15.7322
15.9142
16.0393
16.2054
16.2975
16.4662
14.7641
14.5919
14.4345
14.3029
14.2031
14.1371
14.0973
14.0987
14.1107
14.1414
14.1782
14.2345
14.2792
14.3424
14.3851
14.4484
14.4868
14.555
14.7656
14.5942
14.4321
14.2828
14.1466
14.0296
13.9256
13.8437
13.7745
13.7224
13.6772
13.6482
13.6204
13.6063
13.5892
13.5832
13.5733
13.5817
14.7657
14.5945
14.4323
14.2806
14.137
14.0051
13.8816
13.7706
13.668
13.5778
13.4939
13.422
13.3538
13.2972
13.2407
13.1973
13.1474
13.1179
14.7657
14.5944
14.4323
14.2801
14.1357
14.0007
13.8728
13.754
13.6418
13.5386
13.441
13.3524
13.2678
13.1923
13.1186
13.0551
12.9897
12.937
14.7657
14.5941
14.4321
14.2797
14.1353
13.9995
13.8707
13.7497
13.6348
13.5272
13.4248
13.3295
13.2385
13.1543
13.0733
12.9992
12.9269
12.8618
14.7657
14.594
14.4319
14.2792
14.1349
13.9987
13.8698
13.7481
13.6327
13.5237
13.4201
13.3225
13.2295
13.1419
13.0583
12.9797
12.9044
12.8339
14.7657
14.5938
14.4317
14.2789
14.1345
13.9981
13.8691
13.7471
13.6316
13.5222
13.4184
13.32
13.2266
13.138
13.0537
12.9738
12.8976
12.8254
14.7657
14.5938
14.4316
14.2786
14.1341
13.9976
13.8685
13.7463
13.6307
13.5211
13.4171
13.3186
13.225
13.1361
13.0516
12.9713
12.8949
12.8223
14.7657
14.5937
14.4315
14.2784
14.1338
13.9972
13.868
13.7457
13.6299
13.5202
13.4162
13.3175
13.2237
13.1347
13.0501
12.9697
12.8931
12.8204
14.7657
14.5937
14.4314
14.2783
14.1336
13.9969
13.8677
13.7453
13.6294
13.5196
13.4155
13.3167
13.2228
13.1337
13.049
12.9685
12.8919
12.819
14.7657
14.5937
14.4314
14.2782
14.1336
13.9969
13.8675
13.7452
13.6292
13.5194
13.4152
13.3163
13.2224
13.1333
13.0485
12.9679
12.8913
12.8183
14.7657
14.5937
14.4315
14.2783
14.1337
13.997
13.8677
13.7453
13.6294
13.5196
13.4154
13.3165
13.2227
13.1335
13.0488
12.9683
12.8917
12.8187
14.7657
14.5937
14.4316
14.2785
14.1339
13.9972
13.8681
13.7457
13.63
13.5202
13.4162
13.3176
13.224
13.1352
13.0509
12.9707
12.8947
12.8223
14.7657
14.5938
14.4317
14.2786
14.1343
13.9977
13.869
13.7472
13.6325
13.524
13.4219
13.3252
13.2344
13.1482
13.0676
12.9907
12.9191
12.8503
14.7657
14.5937
14.4319
14.2789
14.1361
14.002
13.8782
13.7628
13.6573
13.5595
13.4706
13.3883
13.314
13.2446
13.1828
13.1237
13.0729
13.0213
14.7644
14.5922
14.4335
14.2871
14.1628
14.0551
13.9689
13.8978
13.8459
13.8048
13.7783
13.7581
13.7483
13.7417
13.7424
13.7435
13.7531
13.7519
14.7478
14.5944
14.4764
14.4102
14.4234
14.4613
14.5554
14.6707
14.817
14.9614
15.1239
15.2714
15.4323
15.5688
15.7203
15.838
15.9791
16.0731
14.6504
14.7821
14.9369
15.3416
15.9228
16.5509
17.234
17.8783
18.5382
19.1223
19.7135
20.2106
20.7213
21.1264
21.5607
21.8779
22.248
22.4838
14.572
16.1273
17.9727
20.4197
22.9239
25.2658
27.5475
29.5536
31.4922
33.1046
34.6883
35.9173
37.1799
38.0708
39.0669
39.6796
40.4691
40.8617
16.5443
25.8794
36.7213
46.5549
55.8671
64.2751
72.1048
78.7455
84.8084
89.5986
94.0234
97.1875
100.328
102.208
104.473
105.439
107.16
107.521
45.7969
105.21
164.443
217.237
267.853
313.461
353.68
386.128
413.253
433.69
450.639
462.752
472.951
479.839
486.892
490.391
496.25
497.596
632.346
1081.15
1534.75
1880.98
2183.47
2431.74
2631.5
2772.95
2876.05
2932.05
2968.89
2969.89
2962.85
2945.85
2917.86
2884.53
2848.64
2811.24
0.95958
0.986404
1.65304
2.28378
2.82172
3.28954
3.74038
4.16901
4.59649
5.05436
5.58369
6.23295
7.01436
7.9092
8.90333
9.99498
11.1867
12.4851
13.895
15.4233
17.0745
18.8565
20.7761
22.8483
25.0505
27.3838
29.8483
32.4516
35.2017
38.1211
41.2381
44.481
47.8667
51.3944
55.0631
58.8793
62.8419
66.9619
71.2429
75.6954
80.3209
85.1337
90.1352
95.3402
100.748
106.369
112.191
118.228
124.481
130.964
137.674
144.628
151.822
159.273
166.975
174.948
183.184
191.701
200.491
209.574
218.938
228.605
238.56
248.827
259.388
270.267
281.444
292.945
304.746
316.875
329.306
342.068
355.132
368.528
382.223
396.248
410.569
425.216
440.153
455.415
470.957
486.816
502.946
519.38
536.065
553.035
570.232
587.686
605.342
623.209
641.247
659.411
677.665
695.957
714.248
732.494
750.694
768.893
787.263
805.595
823.84
841.954
859.888
877.583
894.971
911.991
928.562
944.617
960.06
974.814
988.772
1001.85
1013.94
1024.96
1034.81
1043.41
1050.66
1056.29
1059.34
1061.62
1061.18
1059.41
1056.26
1050.61
1043.12
1033.69
1022.4
1008.85
993.485
976.479
958.009
938.213
917.301
895.423
872.798
849.578
825.983
802.166
778.369
754.872
732.31
714.016
698.704
683.768
668.911
654.149
639.535
625.127
610.969
597.103
583.559
570.37
557.555
545.135
533.12
521.519
510.336
499.574
489.234
479.315
469.813
460.726
452.036
443.741
435.841
428.341
421.238
414.519
408.171
402.177
396.527
391.202
386.181
381.425
376.88
372.447
367.943
362.886
356.838
333.38
3.90302
2.17346
1.96055
2.05705
2.27356
2.55953
2.89993
3.28546
3.71497
4.19259
4.72508
5.31874
5.97461
6.68939
7.4598
8.28433
9.16278
10.0957
11.0838
12.1276
13.2274
14.3835
15.5954
16.8629
18.1851
19.5623
20.9931
22.4794
24.0232
25.6271
27.2911
29.0105
30.7887
32.6279
34.5312
36.5036
38.5507
40.6761
42.8741
45.1485
47.502
49.9378
52.4582
55.0661
57.7627
60.5498
63.4267
66.3971
69.4624
72.6259
75.8889
79.2545
82.7236
86.2995
89.9828
93.7765
97.6809
101.699
105.831
110.078
114.442
118.924
123.524
128.244
133.082
138.041
143.119
148.318
153.636
159.074
164.631
170.306
176.098
182.006
188.028
194.162
200.406
206.759
213.216
219.777
226.435
233.191
240.036
246.968
253.977
261.061
268.208
275.413
282.664
289.956
297.271
304.596
311.917
319.222
326.505
333.765
341.017
348.298
355.671
363.214
370.686
378.101
385.436
392.672
399.788
406.759
413.561
420.168
426.55
432.676
438.512
444.024
449.174
453.927
458.242
462.079
465.386
468.086
469.998
471.423
471.792
471.772
471.007
469.316
466.834
463.543
459.451
454.527
448.845
442.468
435.449
427.847
419.729
411.161
402.217
392.966
383.483
373.837
364.103
354.381
344.858
336.082
327.981
320.137
312.428
304.841
297.39
290.094
282.97
276.032
269.29
262.753
256.427
250.315
244.42
238.742
233.281
228.034
222.998
218.171
213.55
209.13
204.887
200.833
196.972
193.301
189.817
186.514
183.387
180.427
177.63
174.99
172.5
170.152
167.939
165.852
163.876
162.016
160.987
158.662
7.40073
3.54123
2.92496
2.85282
2.97184
3.19906
3.50789
3.88684
4.33012
4.83432
5.39673
6.01447
6.68394
7.40118
8.1628
8.96662
9.81157
10.6975
11.6248
12.5945
13.6082
14.666
15.7638
16.8977
18.0611
19.2627
20.5062
21.7935
23.1261
24.505
25.9311
27.4053
28.9291
30.5044
32.1329
33.8168
35.558
37.3579
39.2172
41.1379
43.1252
45.179
47.3002
49.4907
51.7517
54.0846
56.4906
58.9717
61.5293
64.1654
66.8813
69.6787
72.559
75.5238
78.5741
81.7113
84.9362
88.2501
91.6537
95.1479
98.733
102.41
106.179
110.04
113.993
118.038
122.175
126.404
130.723
135.132
139.63
144.215
148.886
153.641
158.479
163.397
168.392
173.462
178.604
183.816
189.093
194.431
199.827
205.277
210.774
216.315
221.894
227.505
233.143
238.803
244.479
250.165
255.856
261.549
267.246
272.949
278.666
284.406
290.181
295.97
301.721
307.426
313.072
318.647
324.136
329.523
334.791
339.92
344.889
349.674
354.25
358.589
362.66
366.43
369.866
372.93
375.581
377.776
379.404
380.565
381.018
381.103
380.551
379.331
377.471
374.971
371.834
368.07
363.711
358.799
353.373
347.48
341.171
334.498
327.519
320.288
312.86
305.291
297.638
289.978
282.424
275.163
268.208
261.447
254.826
248.338
241.99
235.795
229.765
223.909
218.233
212.743
207.442
202.331
197.409
192.676
188.128
183.763
179.578
175.568
171.729
168.058
164.542
161.181
157.974
154.917
152.007
149.239
146.608
144.11
141.739
139.493
137.366
135.358
133.468
131.7
130.06
128.589
127.584
126.466
10.748
4.93739
3.96724
3.7691
3.82743
4.0279
4.32745
4.70805
5.16036
5.67799
6.25542
6.88725
7.56824
8.29368
9.05976
9.86382
10.7042
11.5802
12.4914
13.4374
14.4174
15.4315
16.4819
17.5707
18.7018
19.8743
21.088
22.3436
23.6422
24.9849
26.3729
27.8081
29.2925
30.8261
32.4102
34.0461
35.7353
37.4787
39.2768
41.1296
43.0416
45.015
47.0515
49.1526
51.3198
53.5545
55.8582
58.2326
60.6791
63.1995
65.7951
68.4675
71.2182
74.0484
76.9593
79.9521
83.0276
86.1869
89.4306
92.7595
96.1742
99.675
103.262
106.936
110.697
114.543
118.475
122.493
126.595
130.779
135.046
139.393
143.818
148.32
152.896
157.544
162.26
167.042
171.887
176.79
181.749
186.76
191.817
196.918
202.057
207.229
212.432
217.659
222.907
228.173
233.452
238.741
244.038
249.34
254.648
259.963
265.285
270.618
275.952
281.272
286.558
291.801
296.991
302.118
307.17
312.133
316.994
321.735
326.338
330.783
335.044
339.097
342.913
346.46
349.705
352.611
355.14
357.25
358.896
360.053
360.598
360.752
360.306
359.254
357.595
355.331
352.466
349.013
344.998
340.452
335.415
329.93
324.044
317.808
311.275
304.496
297.525
290.418
283.234
276.04
268.916
261.954
255.18
248.565
242.09
235.756
229.571
223.546
217.691
212.014
206.52
201.214
196.095
191.166
186.424
181.866
177.491
173.294
169.27
165.416
161.726
158.195
154.816
151.585
148.497
145.55
142.737
140.055
137.5
135.065
132.749
130.545
128.453
126.471
124.601
122.852
121.236
119.8
118.691
117.708
13.7426
6.27892
4.9934
4.68463
4.68704
4.85909
5.14391
5.51704
5.96567
6.48154
7.05805
7.68932
8.36997
9.09528
9.86146
10.6657
11.5062
12.3819
13.2924
14.2376
15.218
16.2342
17.2875
18.3794
19.5112
20.6836
21.8973
23.153
24.4516
25.7942
27.1816
28.6149
30.0948
31.6235
33.2025
34.8334
36.5174
38.2562
40.0514
41.9053
43.8201
45.7966
47.836
49.9399
52.1097
54.3471
56.6538
59.0312
61.4812
64.0054
66.6053
69.2826
72.0389
74.876
77.7954
80.7978
83.8842
87.0557
90.3133
93.6577
97.0897
100.61
104.218
107.915
111.701
115.575
119.537
123.586
127.721
131.942
136.245
140.631
145.097
149.64
154.259
158.949
163.709
168.534
173.421
178.366
183.365
188.414
193.508
198.643
203.814
209.017
214.246
219.499
224.77
230.056
235.353
240.659
245.97
251.283
256.596
261.907
267.214
272.512
277.794
283.047
288.264
293.435
298.552
303.607
308.588
313.486
318.286
322.975
327.536
331.948
336.191
340.239
344.065
347.639
350.925
353.89
356.494
358.698
360.463
361.758
362.446
362.715
362.401
361.486
359.963
357.829
355.087
351.749
347.838
343.384
338.423
332.997
327.156
320.95
314.432
307.657
300.684
293.569
286.373
279.157
271.985
264.917
257.986
251.194
244.542
238.037
231.691
225.515
219.518
213.707
208.089
202.665
197.437
192.404
187.564
182.915
178.451
174.169
170.064
166.13
162.362
158.754
155.3
151.993
148.83
145.805
142.912
140.148
137.507
134.985
132.578
130.282
128.096
126.02
124.057
122.216
120.516
119
117.748
116.62
16.783
7.59735
5.98157
5.55207
5.49866
5.63707
5.90162
6.26083
6.6985
7.20469
7.7722
8.39511
9.06832
9.78749
10.5491
11.3504
12.1895
13.0655
13.9778
14.9263
15.9116
16.9343
17.9953
19.0956
20.2363
21.4183
22.6424
23.9095
25.2207
26.577
27.9796
29.4295
30.9282
32.4771
34.0777
35.7317
37.4405
39.2058
41.0292
42.9127
44.8579
46.8664
48.9396
51.0793
53.2872
55.565
57.9145
60.3376
62.836
65.4118
68.0665
70.8021
73.6203
76.5226
79.5103
82.5855
85.7496
89.004
92.35
95.7885
99.3206
102.947
106.668
110.485
114.397
118.404
122.506
126.702
130.992
135.374
139.846
144.407
149.054
153.786
158.599
163.49
168.455
173.491
178.594
183.759
188.981
194.257
199.58
204.947
210.351
215.788
221.253
226.74
232.245
237.764
243.293
248.827
254.361
259.892
265.416
270.927
276.42
281.889
287.328
292.73
298.089
303.396
308.645
313.828
318.937
323.96
328.887
333.704
338.397
342.947
347.334
351.533
355.519
359.26
362.724
365.873
368.668
371.071
373.04
374.542
375.446
375.862
375.718
374.951
373.553
371.518
368.847
365.55
361.646
357.164
352.141
346.619
340.648
334.283
327.581
320.604
313.41
306.061
298.618
291.138
283.682
276.301
269.028
261.882
254.877
248.025
241.341
234.837
228.523
222.407
216.495
210.788
205.287
199.992
194.9
190.007
185.309
180.801
176.476
172.33
168.355
164.545
160.894
157.396
154.044
150.833
147.757
144.81
141.988
139.286
136.701
134.228
131.867
129.619
127.487
125.483
123.624
121.951
120.505
119.138
20.8656
9.04883
6.95563
6.36231
6.23763
6.33461
6.57352
6.9145
7.33732
7.83017
8.38509
8.99611
9.65843
10.3681
11.1218
11.9172
12.7524
13.6265
14.5388
15.4893
16.4783
17.5063
18.5741
19.6825
20.8326
22.0252
23.2613
24.5421
25.8686
27.2421
28.6637
30.1348
31.6569
33.2314
34.86
36.5441
38.2856
40.0861
41.9473
43.8711
45.8593
47.9136
50.0359
52.228
54.492
56.8298
59.2434
61.7351
64.3068
66.9607
69.6989
72.5235
75.4367
78.4404
81.5367
84.7274
88.0146
91.3999
94.885
98.4713
102.16
105.952
109.849
113.851
117.958
122.17
126.488
130.911
135.437
140.067
144.797
149.626
154.553
159.573
164.684
169.883
175.165
180.526
185.962
191.468
197.038
202.667
208.348
214.077
219.847
225.652
231.486
237.343
243.217
249.103
254.995
260.886
266.772
272.647
278.505
284.339
290.145
295.915
301.644
307.326
312.954
318.522
324.023
329.45
334.795
340.05
345.205
350.247
355.163
359.937
364.548
368.976
373.193
377.17
380.873
384.266
387.309
389.958
392.171
393.905
395.07
395.675
395.711
395.101
393.828
391.882
389.262
385.973
382.032
377.466
372.313
366.618
360.433
353.818
346.835
339.546
332.016
324.31
316.489
308.614
300.742
292.924
285.198
277.591
270.124
262.817
255.686
248.745
242.005
235.475
229.161
223.066
217.189
211.531
206.086
200.853
195.825
190.996
186.361
181.913
177.645
173.549
169.619
165.848
162.229
158.756
155.422
152.222
149.15
146.201
143.372
140.659
138.062
135.582
133.223
130.998
128.923
127.032
125.344
123.693
24.9066
10.4365
7.85215
7.08574
6.88388
6.93556
7.14591
7.46643
7.87267
8.35075
8.89181
9.48965
10.1396
10.8379
11.5817
12.3688
13.1976
14.067
14.9765
15.9259
16.9156
17.9459
19.0176
20.1314
21.2884
22.4896
23.7361
25.029
26.3696
27.7593
29.1995
30.6917
32.2375
33.8384
35.4961
37.2125
38.9893
40.8284
42.7316
44.701
46.7385
48.8462
51.0262
53.2806
55.6118
58.0219
60.5135
63.0888
65.7505
68.5009
71.3426
74.2783
77.3102
80.4411
83.6733
87.0092
90.4513
94.0016
97.6622
101.435
105.322
109.324
113.442
117.678
122.033
126.506
131.097
135.806
140.633
145.576
150.634
155.805
161.085
166.473
171.964
177.555
183.241
189.018
194.88
200.821
206.836
212.917
219.059
225.253
231.494
237.772
244.082
250.415
256.764
263.122
269.482
275.836
282.176
288.496
294.789
301.047
307.263
313.431
319.544
325.595
331.579
337.489
343.318
349.06
354.709
360.255
365.691
371.005
376.186
381.22
386.087
390.769
395.239
399.47
403.429
407.078
410.376
413.279
415.74
417.712
419.127
419.938
420.152
419.694
418.538
416.67
414.083
410.781
406.777
402.098
396.783
390.877
384.438
377.526
370.206
362.547
354.615
346.479
338.205
329.856
321.49
313.161
304.91
296.771
288.773
280.938
273.286
265.835
258.596
251.579
244.791
238.234
231.91
225.816
219.949
214.305
208.878
203.662
198.65
193.834
189.208
184.763
180.491
176.386
172.439
168.645
164.995
161.483
158.105
154.855
151.729
148.724
145.839
143.077
140.442
137.945
135.603
133.443
131.468
129.5
28.6159
11.6841
8.63817
7.70545
7.42704
7.43335
7.61439
7.91369
8.3028
8.76574
9.29267
9.87699
10.514
11.2001
11.9327
12.7097
13.5298
14.392
15.2958
16.2411
17.2281
18.2574
19.3295
20.4455
21.6062
22.8129
24.0667
25.369
26.7213
28.1251
29.582
31.0936
32.6619
34.2885
35.9754
37.7245
39.5378
41.4174
43.3655
45.3842
47.4759
49.6429
51.8876
54.2125
56.6202
59.1135
61.695
64.3677
67.1343
69.998
72.9616
76.0282
79.2009
82.4826
85.8764
89.3852
93.0118
96.7589
100.629
104.625
108.748
113.001
117.385
121.901
126.551
131.335
136.253
141.305
146.491
151.809
157.258
162.836
168.539
174.365
180.31
186.369
192.537
198.809
205.178
211.639
218.184
224.805
231.494
238.243
245.043
251.885
258.76
265.66
272.574
279.493
286.409
293.311
300.192
307.041
313.85
320.611
327.315
333.954
340.52
347.007
353.406
359.712
365.918
372.017
378.003
383.868
389.605
395.205
400.657
405.949
411.065
415.986
420.691
425.152
429.338
433.213
436.736
439.861
442.538
444.716
446.339
447.338
447.704
447.371
446.304
444.488
441.913
438.577
434.493
429.685
424.191
418.059
411.345
404.113
396.43
388.369
380
371.397
362.627
353.76
344.855
335.97
327.151
318.437
309.863
301.454
293.236
285.226
277.439
269.886
262.573
255.505
248.681
242.101
235.761
229.656
223.78
218.126
212.686
207.453
202.419
197.575
192.912
188.424
184.101
179.937
175.923
172.054
168.323
164.725
161.256
157.913
154.697
151.608
148.652
145.84
143.186
140.712
138.409
136.096
31.8713
12.7618
9.30216
8.21764
7.86482
7.8298
7.98143
8.25941
8.6313
9.07913
9.592
10.1628
10.7868
11.4603
12.1809
12.9467
13.7565
14.6095
15.5052
16.4438
17.4254
18.4508
19.5205
20.6356
21.7972
23.0065
24.265
25.5742
26.9358
28.3516
29.8235
31.3535
32.9435
34.5957
36.3123
38.0954
39.9473
41.8704
43.8673
45.9403
48.0923
50.3258
52.6437
55.049
57.5446
60.1337
62.8195
65.6053
68.4946
71.4908
74.5975
77.8182
81.1566
84.6162
88.2007
91.9135
95.758
99.7374
103.855
108.113
112.516
117.064
121.76
126.605
131.602
136.751
142.052
147.505
153.11
158.866
164.771
170.821
177.016
183.35
189.82
196.42
203.145
209.988
216.943
224.001
231.155
238.394
245.711
253.095
260.535
268.021
275.541
283.085
290.641
298.198
305.745
313.269
320.76
328.207
335.598
342.924
350.174
357.339
364.409
371.375
378.229
384.963
391.57
398.043
404.375
410.559
416.589
422.457
428.153
433.669
438.99
444.101
448.983
453.612
457.958
461.988
465.662
468.935
471.756
474.073
475.825
476.955
477.414
477.155
476.124
474.318
471.721
468.329
464.147
459.197
453.515
447.148
440.152
432.592
424.538
416.066
407.249
398.164
388.884
379.48
370.018
360.558
351.15
341.841
332.668
323.662
314.851
306.255
297.891
289.771
281.903
274.291
266.936
259.836
252.988
246.387
240.025
233.897
227.993
222.305
216.825
211.543
206.452
201.541
196.804
192.23
187.814
183.548
179.425
175.44
171.59
167.871
164.284
160.83
157.514
154.347
151.341
148.514
145.849
143.164
34.6029
13.6559
9.84102
8.6231
8.20203
8.12865
8.25301
8.51045
8.86549
9.29844
9.79747
10.355
10.966
11.6269
12.3354
13.0895
13.8883
14.7311
15.6175
16.5478
17.5224
18.5421
19.6077
20.7204
21.8813
23.0919
24.3537
25.6685
27.0385
28.4658
29.9528
31.5017
33.1149
34.7949
36.544
38.365
40.2606
42.2334
44.2863
46.4224
48.6446
50.9562
53.3605
55.8608
58.4607
61.1639
63.9742
66.8953
69.9314
73.0864
76.3646
79.7701
83.3072
86.98
90.7927
94.7494
98.8541
103.111
107.522
112.093
116.826
121.723
126.787
132.021
137.425
143.001
148.749
154.669
160.761
167.023
173.453
180.049
186.807
193.723
200.792
208.008
215.365
222.855
230.47
238.201
246.038
253.972
261.99
270.081
278.232
286.432
294.666
302.921
311.184
319.44
327.677
335.88
344.035
352.13
360.151
368.085
375.92
383.644
391.245
398.713
406.036
413.206
420.215
427.052
433.713
440.189
446.474
452.562
458.445
464.116
469.565
474.78
479.744
484.437
488.835
492.907
496.616
499.921
502.773
505.117
506.895
508.05
508.514
508.245
507.172
505.315
502.65
499.164
494.858
489.749
483.87
477.264
469.988
462.106
453.689
444.813
435.556
425.998
416.214
406.28
396.265
386.233
376.24
366.336
356.563
346.956
337.545
328.356
319.405
310.706
302.269
294.098
286.194
278.556
271.18
264.061
257.192
250.566
244.172
238.004
232.052
226.306
220.756
215.395
210.212
205.2
200.351
195.656
191.11
186.707
182.443
178.316
174.325
170.473
166.764
163.209
159.816
156.603
153.543
150.466
36.7701
14.361
10.257
8.9275
8.44722
8.33922
8.43857
8.67663
9.01548
9.43407
9.91978
10.4646
11.0633
11.7122
12.409
13.1523
13.9411
14.7741
15.6513
16.5734
17.5412
18.5555
19.6176
20.7286
21.8902
23.1036
24.3701
25.6911
27.0709
28.5124
30.0179
31.5901
33.2317
34.9458
36.7352
38.6033
40.553
42.5876
44.7104
46.9249
49.2348
51.6439
54.1559
56.7749
59.505
62.3506
65.3161
68.4059
71.6247
74.9772
78.4682
82.1026
85.8851
89.8207
93.914
98.1697
102.592
107.186
111.956
116.904
122.035
127.351
132.855
138.55
144.437
150.517
156.79
163.256
169.914
176.763
183.8
191.022
198.424
206.002
213.75
221.66
229.726
237.938
246.288
254.764
263.355
272.049
280.833
289.694
298.617
307.586
316.587
325.603
334.619
343.617
352.583
361.499
370.35
379.119
387.79
396.349
404.78
413.069
421.201
429.162
436.94
444.524
451.902
459.065
466.004
472.712
479.182
485.408
491.386
497.109
502.572
507.765
512.678
517.294
521.595
525.554
529.141
532.319
535.043
537.263
538.924
539.975
540.315
539.911
538.694
536.704
533.901
530.268
525.8
520.509
514.421
507.577
500.029
491.841
483.083
473.83
464.161
454.158
443.9
433.464
422.924
412.346
401.792
391.315
380.961
370.77
360.774
351.001
341.472
332.2
323.197
314.468
306.015
297.836
289.927
282.283
274.898
267.762
260.867
254.204
247.764
241.536
235.51
229.679
224.031
218.558
213.253
208.107
203.113
198.267
193.565
189.004
184.583
180.306
176.177
172.204
168.397
164.769
161.292
157.803
38.3621
14.8796
10.5557
9.13832
8.60955
8.47176
8.54915
8.76971
9.0937
9.4991
9.97279
10.5066
11.0943
11.7326
12.4192
13.1532
13.9342
14.7597
15.6306
16.5478
17.512
18.5244
19.5864
20.6997
21.8663
23.0886
24.3661
25.7002
27.098
28.562
30.0953
31.7014
33.3835
35.1453
36.9908
38.9236
40.9475
43.0662
45.2836
47.6039
50.0313
52.5704
55.2257
58.002
60.9043
63.9374
67.1065
70.4168
73.8738
77.4827
81.249
85.1782
89.2758
93.547
97.9971
102.631
107.454
112.471
117.686
123.102
128.723
134.553
140.594
146.847
153.315
159.997
166.893
174.003
181.326
188.858
196.596
204.536
212.673
221.001
229.512
238.198
247.051
256.059
265.212
274.498
283.903
293.414
303.015
312.691
322.424
332.198
341.995
351.795
361.582
371.335
381.036
390.666
400.207
409.64
418.946
428.107
437.106
445.925
454.546
462.953
471.13
479.064
486.74
494.147
501.274
508.114
514.659
520.903
526.843
532.475
537.796
542.803
547.489
551.846
555.859
559.51
562.777
565.629
568.031
569.937
571.293
572.056
572.118
571.417
569.939
567.707
564.676
560.824
556.144
550.64
544.332
537.253
529.452
520.987
511.924
502.338
492.306
481.91
471.23
460.345
449.331
438.258
427.19
416.184
405.291
394.553
384.007
373.682
363.601
353.781
344.233
334.964
325.976
317.267
308.835
300.673
292.775
285.132
277.736
270.576
263.642
256.926
250.417
244.105
237.981
232.035
226.26
220.647
215.191
209.885
204.726
199.712
194.843
190.12
185.55
181.139
176.895
172.831
168.916
165.004
39.316
15.1964
10.7368
9.26155
8.698
8.53718
8.59715
8.80359
9.11524
9.50962
9.97366
10.4996
11.0797
11.7111
12.3914
13.119
13.8926
14.7133
15.5819
16.5004
17.4684
18.4872
19.5585
20.6844
21.8673
23.1091
24.4099
25.7744
27.2077
28.714
30.2973
31.9615
33.7109
35.5496
37.4819
39.5126
41.6472
43.8898
46.2452
48.7182
51.3141
54.0384
56.8966
59.8943
63.0372
66.3311
69.7819
73.3957
77.1784
81.136
85.2747
89.6003
94.1187
98.8356
103.757
108.887
114.231
119.794
125.58
131.592
137.833
144.306
151.013
157.955
165.132
172.544
180.189
188.065
196.17
204.5
213.05
221.813
230.784
239.954
249.315
258.856
268.567
278.435
288.448
298.592
308.851
319.209
329.649
340.154
350.704
361.28
371.862
382.428
392.958
403.431
413.824
424.119
434.292
444.323
454.193
463.878
473.36
482.617
491.629
500.375
508.839
517.002
524.848
532.363
539.535
546.353
552.81
558.899
564.619
569.968
574.947
579.557
583.8
587.672
591.168
594.279
596.989
599.28
601.128
602.492
603.321
603.577
603.164
601.972
600.098
597.495
594.129
589.975
585.022
579.27
572.731
565.429
557.403
548.705
539.394
529.541
519.218
508.504
497.48
486.225
474.814
463.321
451.812
440.346
428.979
417.755
406.715
395.889
385.304
374.979
364.925
355.151
345.659
336.449
327.518
318.86
310.467
302.332
294.445
286.797
279.379
272.179
265.188
258.396
251.794
245.372
239.122
233.037
227.11
221.335
215.71
210.232
204.901
199.72
194.694
189.829
185.133
180.619
176.254
171.91
39.8291
15.3715
10.8284
9.31466
8.72664
8.54909
8.59711
8.79509
9.09941
9.48751
9.94576
10.4652
11.0414
11.6717
12.3534
13.0847
13.8652
14.6954
15.5762
16.509
17.4926
18.5303
19.6248
20.7789
21.9957
23.2784
24.6304
26.0559
27.5596
29.1462
30.8208
32.5882
34.4536
36.4222
38.4994
40.6908
43.0023
45.44
48.0097
50.7176
53.5705
56.575
59.7377
63.0652
66.564
70.2407
74.1021
78.1548
82.4053
86.86
91.5252
96.4069
101.511
106.843
112.408
118.21
124.255
130.545
137.083
143.873
150.915
158.21
165.76
173.562
181.615
189.918
198.466
207.256
216.282
225.539
235.019
244.714
254.616
264.715
274.999
285.456
296.074
306.837
317.733
328.743
339.852
351.041
362.291
373.583
384.896
396.208
407.497
418.741
429.916
440.999
451.967
462.797
473.466
483.951
494.231
504.281
514.079
523.601
532.823
541.723
550.281
558.474
566.286
573.698
580.697
587.271
593.41
599.109
604.367
609.184
613.565
617.52
621.055
624.173
626.882
629.184
631.067
632.528
633.561
634.127
634.17
633.704
632.499
630.699
628.256
625.139
621.319
616.774
611.489
605.459
598.688
591.188
582.986
574.12
564.642
554.611
544.097
533.17
521.909
510.39
498.689
486.879
475.028
463.199
451.448
439.823
428.367
417.115
406.094
395.326
384.824
374.598
364.652
354.985
345.594
336.475
327.619
319.02
310.668
302.554
294.668
287
279.54
272.279
265.207
258.315
251.595
245.04
238.643
232.399
226.305
220.36
214.563
208.917
203.428
198.102
192.946
187.973
183.15
178.372
39.7983
15.3678
10.8204
9.30091
8.70669
8.52363
8.56707
8.76003
9.06309
9.45361
9.91738
10.4459
11.0338
11.678
12.3745
13.1237
13.926
14.7823
15.694
16.6632
17.6919
18.783
19.9397
21.1657
22.4652
23.8427
25.3031
26.8515
28.4936
30.2353
32.0826
34.042
36.1199
38.323
40.658
43.1317
45.7504
48.5216
51.4533
54.5542
57.8334
61.2996
64.9598
68.8214
72.8917
77.1779
81.6867
86.4249
91.3988
96.6144
102.077
107.792
113.764
119.997
126.495
133.26
140.294
147.598
155.173
163.018
171.132
179.512
188.157
197.06
206.218
215.626
225.275
235.16
245.271
255.6
266.137
276.87
287.79
298.882
310.133
321.53
333.058
344.699
356.439
368.258
380.139
392.063
404.008
415.955
427.881
439.764
451.581
463.307
474.919
486.391
497.699
508.82
519.731
530.407
540.824
550.96
560.787
570.281
579.414
588.163
596.503
604.413
611.87
618.855
625.353
631.352
636.84
641.813
646.27
650.215
653.656
656.612
659.098
661.12
662.704
663.873
664.601
664.912
664.833
664.296
663.228
661.66
659.571
656.937
653.734
649.945
645.55
640.526
634.855
628.527
621.535
613.879
605.568
596.624
587.082
576.993
566.411
555.402
544.035
532.385
520.523
508.523
496.452
484.374
472.348
460.424
448.648
437.058
425.683
414.547
403.667
393.052
382.708
372.635
362.833
353.294
344.014
334.985
326.197
317.643
309.312
301.195
293.283
285.566
278.036
270.683
263.499
256.479
249.615
242.904
236.342
229.928
223.663
217.55
211.594
205.803
200.181
194.744
189.46
184.249
39.3066
15.2334
10.7379
9.23419
8.64764
8.4729
8.53068
8.74178
9.0649
9.47493
9.96109
10.5162
11.1359
11.8178
12.5607
13.3646
14.2303
15.1597
16.1553
17.2203
18.3583
19.5736
20.8708
22.2553
23.7328
25.3095
26.9922
28.788
30.7043
32.7489
34.9302
37.2562
39.7354
42.3766
45.1885
48.1801
51.3597
54.7366
58.3203
62.1209
66.1492
70.4136
74.9236
79.6871
84.711
90.0011
95.5627
101.4
107.517
113.918
120.603
127.576
134.836
142.385
150.221
158.341
166.745
175.426
184.381
193.604
203.089
212.827
222.812
233.033
243.483
254.15
265.024
276.094
287.349
298.776
310.363
322.097
333.964
345.949
358.038
370.216
382.466
394.772
407.117
419.483
431.851
444.203
456.518
468.776
480.956
493.036
504.993
516.802
528.439
539.88
551.102
562.08
572.792
583.215
593.325
603.098
612.506
621.523
630.119
638.269
645.945
653.127
659.789
665.912
671.477
676.476
680.895
684.729
687.984
690.663
692.775
694.355
695.428
695.986
696.102
695.831
695.069
693.838
692.274
690.342
688.006
685.249
682.052
678.411
674.311
669.748
664.713
659.184
653.138
646.557
639.416
631.704
623.413
614.536
605.093
595.117
584.649
573.743
562.459
550.864
539.027
527.016
514.899
502.74
490.599
478.528
466.576
454.781
443.178
431.793
420.643
409.742
399.095
388.706
378.573
368.691
359.056
349.66
340.495
331.554
322.827
314.307
305.983
297.848
289.892
282.109
274.49
267.03
259.722
252.564
245.552
238.686
231.967
225.399
218.987
212.739
206.661
200.768
195.03
189.398
38.3765
14.9437
10.5715
9.12498
8.5815
8.44706
8.5427
8.78919
9.1519
9.61106
10.155
10.7773
11.4745
12.2456
13.0908
14.0116
15.0106
16.0913
17.2581
18.5164
19.8719
21.3313
22.9018
24.5912
26.4081
28.3614
30.4605
32.7155
35.137
37.7357
40.5225
43.5085
46.705
50.1231
53.774
57.6681
61.816
66.2277
70.9127
75.8799
81.136
86.6919
92.5626
98.7516
105.26
112.088
119.233
126.694
134.468
142.55
150.937
159.622
168.601
177.865
187.406
197.214
207.28
217.593
228.14
238.909
249.889
261.066
272.428
283.96
295.651
307.485
319.451
331.535
343.723
356.003
368.361
380.784
393.257
405.768
418.302
430.845
443.381
455.897
468.375
480.8
493.157
505.427
517.593
529.637
541.539
553.28
564.84
576.194