/*--------------------------------*- C++ -*----------------------------------*\
| =========                 |                                                 |
| \\      /  F ield         | OpenFOAM: The Open Source CFD Toolbox           |
|  \\    /   O peration     | Version:  2212                                  |
|   \\  /    A nd           | Website:  www.openfoam.com                      |
|    \\/     M anipulation  |                                                 |
\*---------------------------------------------------------------------------*/
FoamFile
{
    version     2.0;
    format      ascii;
    arch        "LSB;label=32;scalar=64";
    class       volScalarField;
    location    "150";
    object      k;
}
// * * * * * * * * * * * * * * * * * * * * * * * * * * * * * * * * * * * * * //

dimensions      [0 2 -2 0 0 0 0];

internalField   nonuniform List<scalar> 
12225
(
0.571497
0.987649
1.28117
1.45558
1.54168
1.57745
1.57569
1.56727
1.54719
1.52379
1.50055
1.47812
1.45808
1.43919
1.42357
1.40794
1.39728
1.38275
0.438448
0.496882
0.521947
0.534909
0.542869
0.54741
0.550206
0.552233
0.556032
0.559336
0.565663
0.570868
0.579616
0.586585
0.596737
0.604931
0.6151
0.624709
0.387569
0.417494
0.424188
0.421529
0.415057
0.404941
0.393834
0.382764
0.371985
0.362366
0.353304
0.34605
0.339027
0.334286
0.329135
0.326658
0.323032
0.322279
0.376179
0.384819
0.388123
0.387414
0.385437
0.381126
0.375696
0.36955
0.363128
0.356553
0.350118
0.3438
0.337827
0.332068
0.326783
0.321697
0.317168
0.312737
0.374177
0.375375
0.376396
0.375928
0.374799
0.372504
0.369619
0.366134
0.362487
0.35847
0.354559
0.350374
0.346523
0.342392
0.338799
0.334835
0.331615
0.327869
0.373736
0.372545
0.371996
0.371083
0.369918
0.368265
0.36634
0.364031
0.361641
0.358969
0.356374
0.35354
0.350919
0.348053
0.345526
0.342711
0.340357
0.337641
0.373769
0.371726
0.370231
0.368832
0.367465
0.36594
0.364345
0.362553
0.360734
0.358751
0.356814
0.354734
0.352772
0.35067
0.348753
0.346679
0.344859
0.342842
0.373818
0.371563
0.369621
0.36786
0.366251
0.364664
0.363122
0.361522
0.359945
0.358299
0.356696
0.355028
0.353431
0.351773
0.350218
0.348594
0.34711
0.345533
0.373833
0.371554
0.369458
0.367511
0.365723
0.364025
0.362429
0.360862
0.359356
0.357853
0.356402
0.354945
0.353544
0.352133
0.350789
0.349431
0.348155
0.34685
0.373832
0.37156
0.369425
0.36741
0.36553
0.363753
0.362087
0.360493
0.358981
0.357517
0.356117
0.35475
0.35344
0.352154
0.350923
0.349711
0.348556
0.347411
0.37383
0.371561
0.369417
0.367384
0.365468
0.363653
0.361942
0.360317
0.35878
0.35731
0.355913
0.354572
0.353291
0.352056
0.350876
0.349733
0.348639
0.34758
0.373828
0.371559
0.369412
0.367375
0.365448
0.36362
0.36189
0.360248
0.358691
0.35721
0.355804
0.354461
0.353183
0.35196
0.350793
0.349674
0.348603
0.347576
0.373827
0.371557
0.369407
0.367369
0.365437
0.363604
0.361865
0.360214
0.358647
0.357157
0.355741
0.354392
0.353109
0.351885
0.350719
0.349605
0.348541
0.347525
0.373827
0.371555
0.369403
0.367362
0.365428
0.363591
0.361849
0.360193
0.35862
0.357124
0.355701
0.354347
0.353058
0.35183
0.350659
0.349543
0.348477
0.347462
0.373826
0.371553
0.369399
0.367357
0.36542
0.363581
0.361835
0.360177
0.3586
0.357101
0.355674
0.354316
0.353022
0.35179
0.350615
0.349496
0.348426
0.347408
0.373826
0.371552
0.369396
0.367352
0.365413
0.363572
0.361824
0.360163
0.358584
0.357082
0.355652
0.354291
0.352995
0.351759
0.350582
0.349459
0.348387
0.347365
0.373825
0.371551
0.369395
0.367349
0.365408
0.363566
0.361816
0.360153
0.358571
0.357067
0.355635
0.354272
0.352973
0.351735
0.350555
0.34943
0.348356
0.347332
0.373825
0.371551
0.369393
0.367347
0.365405
0.363561
0.36181
0.360145
0.358562
0.357057
0.355623
0.354258
0.352957
0.351718
0.350536
0.349409
0.348334
0.347308
0.373825
0.371551
0.369393
0.367347
0.365404
0.36356
0.361808
0.360143
0.358559
0.357052
0.355618
0.354252
0.35295
0.35171
0.350527
0.349399
0.348323
0.347296
0.373825
0.371551
0.369394
0.367348
0.365406
0.363562
0.361811
0.360146
0.358562
0.357056
0.355621
0.354256
0.352954
0.351714
0.350531
0.349404
0.348328
0.347301
0.373826
0.371552
0.369396
0.367351
0.36541
0.363567
0.361816
0.360152
0.35857
0.357065
0.355632
0.354268
0.352968
0.351729
0.350549
0.349422
0.348348
0.347322
0.373826
0.371553
0.369398
0.367355
0.365416
0.363575
0.361828
0.360168
0.358591
0.357091
0.355664
0.354306
0.353011
0.351778
0.350601
0.349478
0.348406
0.347381
0.373826
0.371555
0.369401
0.367363
0.365432
0.363605
0.361875
0.360237
0.358681
0.357203
0.355793
0.35445
0.353166
0.351938
0.35076
0.349633
0.34855
0.34751
0.373827
0.371555
0.369413
0.367418
0.365544
0.363793
0.362138
0.360572
0.35907
0.357632
0.356239
0.354895
0.353587
0.352321
0.351088
0.349892
0.348726
0.347598
0.373819
0.371564
0.369582
0.367846
0.366223
0.364712
0.363219
0.361753
0.360266
0.358786
0.357287
0.355799
0.354305
0.352832
0.351359
0.349921
0.348492
0.347106
0.373767
0.371946
0.370917
0.369978
0.368912
0.367767
0.366326
0.364737
0.362933
0.361061
0.359059
0.357053
0.354969
0.352923
0.350842
0.348822
0.346788
0.344835
0.374093
0.3752
0.37726
0.377562
0.377091
0.375807
0.373488
0.370864
0.367802
0.364686
0.361327
0.358027
0.354601
0.351289
0.34792
0.344697
0.341468
0.338409
0.377677
0.394076
0.402944
0.402353
0.400307
0.396045
0.390665
0.385166
0.379133
0.373303
0.367221
0.361476
0.355718
0.350305
0.345127
0.340198
0.335725
0.331324
0.405777
0.438977
0.451189
0.45581
0.459113
0.462263
0.464978
0.467236
0.469235
0.470857
0.47251
0.473949
0.475576
0.477107
0.479254
0.480885
0.483735
0.485458
0.479013
0.684924
0.865147
0.990805
1.09437
1.17583
1.23937
1.28339
1.31501
1.33203
1.34316
1.34347
1.34134
1.33621
1.32773
1.3176
1.30665
1.29519
0.007302
0.0123223
0.017377
0.0215493
0.0248062
0.0274657
0.0299086
0.0321367
0.0342793
0.0364973
0.038977
0.0419142
0.0453214
0.0490719
0.0530754
0.0573006
0.0617391
0.0663955
0.0712709
0.0763701
0.0816919
0.0872437
0.0930308
0.0990783
0.105308
0.111707
0.118267
0.124995
0.131902
0.139027
0.146426
0.153966
0.161634
0.169432
0.177352
0.185404
0.193582
0.201903
0.210369
0.218993
0.227773
0.236728
0.245856
0.255172
0.264668
0.27435
0.284193
0.29422
0.304419
0.314808
0.325378
0.336143
0.347094
0.358247
0.369588
0.381136
0.392873
0.404818
0.416953
0.429297
0.441826
0.454563
0.467482
0.480606
0.493905
0.507404
0.521072
0.534932
0.548952
0.563157
0.577514
0.592048
0.606722
0.621564
0.636535
0.651663
0.666906
0.682294
0.697785
0.713412
0.729126
0.744962
0.76087
0.776885
0.792951
0.809102
0.825282
0.841522
0.857772
0.874042
0.8903
0.906508
0.92264
0.938652
0.954517
0.970192
0.985663
1.00094
1.01611
1.03129
1.04622
1.06094
1.07539
1.08956
1.10338
1.11683
1.12985
1.14239
1.1544
1.16583
1.17661
1.18667
1.19596
1.2044
1.21194
1.21852
1.22408
1.22854
1.23166
1.23285
1.23339
1.23194
1.22947
1.22558
1.22
1.21292
1.20434
1.1942
1.18223
1.16889
1.1542
1.13826
1.12121
1.10315
1.08423
1.06455
1.0443
1.02357
1.00256
0.981453
0.960553
0.941718
0.926937
0.912858
0.898776
0.884645
0.870513
0.856444
0.842491
0.828704
0.815121
0.801775
0.788691
0.775893
0.763398
0.751221
0.739373
0.727862
0.716695
0.705876
0.695415
0.685293
0.675513
0.666096
0.657061
0.648404
0.640118
0.632195
0.624629
0.617412
0.610535
0.603981
0.597729
0.591741
0.585963
0.580291
0.574521
0.568203
0.561034
0.534641
0.0185926
0.0325451
0.0442496
0.0530827
0.0604133
0.066832
0.0727408
0.0785569
0.0845415
0.0908483
0.0975498
0.104654
0.112138
0.119973
0.12813
0.136594
0.145368
0.15446
0.163882
0.173643
0.183748
0.194203
0.205008
0.216156
0.227628
0.239404
0.25147
0.263813
0.276424
0.289293
0.302408
0.315755
0.329327
0.343129
0.357159
0.371426
0.385933
0.400697
0.415726
0.431033
0.446629
0.462532
0.478759
0.495333
0.51228
0.529602
0.547237
0.565199
0.583493
0.602129
0.621113
0.640453
0.660153
0.680223
0.700663
0.721483
0.742681
0.764264
0.786231
0.808586
0.831325
0.854451
0.877961
0.901855
0.926126
0.950775
0.975793
1.00118
1.02692
1.05302
1.07947
1.10626
1.13338
1.16084
1.1886
1.21668
1.24506
1.27374
1.3027
1.33194
1.36145
1.39123
1.42126
1.45154
1.48206
1.51282
1.54379
1.57498
1.60637
1.63797
1.66975
1.70168
1.73374
1.76589
1.7981
1.83031
1.86246
1.89446
1.92622
1.95766
1.98907
2.02039
2.05157
2.08255
2.11329
2.14371
2.17373
2.20326
2.2322
2.26044
2.28787
2.31433
2.33969
2.36379
2.38648
2.40757
2.42691
2.44436
2.4597
2.47252
2.48212
2.48944
2.49266
2.49446
2.49251
2.48728
2.47878
2.46704
2.45208
2.43407
2.41312
2.38942
2.36317
2.33458
2.30389
2.27136
2.23724
2.2018
2.16528
2.128
2.09028
2.0525
2.01494
1.97737
1.93987
1.90262
1.86577
1.82947
1.79382
1.75891
1.72481
1.69158
1.65924
1.62783
1.59738
1.56788
1.53936
1.5118
1.48522
1.4596
1.43493
1.41114
1.38827
1.36633
1.3453
1.32518
1.30593
1.28753
1.26995
1.25316
1.23713
1.22182
1.20719
1.19319
1.17974
1.16674
1.15397
1.14127
1.12621
1.08857
0.0284801
0.0525052
0.0682715
0.080062
0.0900939
0.0992631
0.108067
0.116838
0.125797
0.135077
0.144748
0.154831
0.165318
0.176195
0.187443
0.199057
0.211038
0.223393
0.23613
0.249259
0.262783
0.276705
0.291022
0.305725
0.320798
0.336227
0.352
0.368107
0.384536
0.401279
0.418325
0.435672
0.453316
0.471262
0.489514
0.508078
0.526962
0.546176
0.565728
0.585626
0.605881
0.626504
0.647507
0.668901
0.690694
0.712891
0.735491
0.758504
0.78194
0.805807
0.830113
0.854868
0.880077
0.905749
0.931886
0.958496
0.98558
1.01314
1.04118
1.0697
1.0987
1.12817
1.15811
1.18852
1.21939
1.25071
1.28249
1.3147
1.34734
1.38039
1.41385
1.44771
1.48195
1.51655
1.55151
1.5868
1.62241
1.65834
1.69455
1.73104
1.76778
1.80477
1.84199
1.87942
1.91704
1.95485
1.99282
2.03094
2.06919
2.10757
2.14606
2.18464
2.22328
2.26197
2.30068
2.3394
2.37811
2.41678
2.45541
2.49395
2.5324
2.57074
2.60891
2.64685
2.68449
2.72176
2.75857
2.79481
2.83038
2.86513
2.89892
2.93158
2.96292
2.99275
3.02084
3.04697
3.07089
3.09237
3.11115
3.12691
3.13933
3.14835
3.15277
3.15479
3.15259
3.14633
3.13602
3.12169
3.10344
3.08138
3.05569
3.02658
2.9943
2.95911
2.92131
2.88121
2.83911
2.79534
2.7502
2.70406
2.65732
2.61041
2.56348
2.51655
2.46974
2.42324
2.37722
2.33185
2.28727
2.24358
2.20086
2.1592
2.11863
2.0792
2.04092
2.00383
1.96792
1.9332
1.89967
1.86731
1.83611
1.80604
1.77709
1.74926
1.72251
1.69683
1.67219
1.64856
1.62591
1.60421
1.58342
1.5635
1.54443
1.52614
1.50859
1.49172
1.4754
1.45956
1.44319
1.41143
0.0365175
0.0708409
0.09072
0.105209
0.117437
0.128599
0.139322
0.149985
0.160831
0.17201
0.183605
0.195651
0.208155
0.221107
0.234497
0.248318
0.262567
0.277248
0.292363
0.307918
0.32391
0.340337
0.357188
0.374455
0.392126
0.410194
0.42865
0.447484
0.466687
0.486251
0.50617
0.52644
0.54706
0.568033
0.589363
0.611054
0.633114
0.65555
0.678371
0.701586
0.725203
0.749235
0.773692
0.798585
0.823923
0.849716
0.875973
0.902704
0.929919
0.95763
0.985845
1.01458
1.04383
1.07361
1.10393
1.13479
1.16619
1.19815
1.23065
1.2637
1.2973
1.33145
1.36614
1.40136
1.4371
1.47337
1.51015
1.54742
1.58518
1.62341
1.66209
1.70121
1.74075
1.7807
1.82102
1.8617
1.90273
1.94406
1.9857
2.0276
2.06975
2.11213
2.15471
2.19747
2.24038
2.28343
2.3266
2.36986
2.4132
2.4566
2.50005
2.54353
2.58701
2.63049
2.67395
2.71738
2.76076
2.80407
2.84729
2.8904
2.93335
2.97613
3.01866
3.06091
3.10281
3.14428
3.18522
3.22555
3.26514
3.30385
3.34152
3.37797
3.41301
3.44641
3.47793
3.50732
3.53429
3.55857
3.57988
3.59792
3.61243
3.62307
3.62883
3.63142
3.62954
3.62311
3.61212
3.59661
3.57664
3.55235
3.52392
3.49159
3.45562
3.4163
3.37398
3.32897
3.28164
3.23235
3.18149
3.12947
3.0767
3.02356
2.97025
2.91691
2.86371
2.81084
2.75849
2.70685
2.65605
2.60624
2.55749
2.5099
2.46352
2.4184
2.37457
2.33204
2.29083
2.25094
2.21236
2.17508
2.13909
2.10437
2.07089
2.03864
2.00758
1.97769
1.94895
1.92132
1.89477
1.86927
1.84477
1.82126
1.7987
1.77705
1.75628
1.73639
1.71733
1.69909
1.68082
1.65274
0.0430118
0.0873397
0.111234
0.128349
0.142628
0.155545
0.167853
0.179998
0.192264
0.204832
0.217812
0.231265
0.245215
0.259667
0.274618
0.290062
0.305995
0.322412
0.339312
0.356693
0.374549
0.392876
0.411665
0.43091
0.4506
0.470728
0.491284
0.512257
0.53364
0.555427
0.577611
0.600191
0.623166
0.646536
0.670305
0.694477
0.719058
0.744056
0.769479
0.795336
0.821639
0.848399
0.875627
0.903336
0.931537
0.960242
0.989462
1.01921
1.0495
1.08034
1.11174
1.14372
1.17628
1.20943
1.24318
1.27754
1.31251
1.3481
1.3843
1.42112
1.45856
1.49661
1.53527
1.57453
1.61438
1.65482
1.69583
1.7374
1.77951
1.82215
1.86529
1.90892
1.95301
1.99754
2.04248
2.08782
2.13351
2.17953
2.22585
2.27245
2.31929
2.36633
2.41356
2.46094
2.50844
2.55603
2.60368
2.65138
2.6991
2.74681
2.7945
2.84215
2.88974
2.93725
2.98466
3.03195
3.07912
3.12613
3.17297
3.2196
3.26601
3.31215
3.35799
3.40347
3.44853
3.49312
3.53714
3.5805
3.62309
3.66477
3.70539
3.74477
3.7827
3.81897
3.85331
3.88546
3.91512
3.94199
3.96576
3.98611
4.00279
4.01547
4.02315
4.02682
4.02602
4.02029
4.00961
3.99399
3.97348
3.94821
3.91836
3.88417
3.84591
3.80391
3.7585
3.71006
3.659
3.60572
3.55065
3.49421
3.43681
3.37882
3.32052
3.26211
3.2038
3.1458
3.08832
3.03155
2.97565
2.92077
2.86701
2.81447
2.76322
2.71329
2.66474
2.61758
2.57182
2.52746
2.48451
2.44295
2.40277
2.36394
2.32644
2.29024
2.25532
2.22164
2.18918
2.1579
2.12778
2.09877
2.07086
2.044
2.01818
1.99337
1.96959
1.94685
1.92517
1.90458
1.8843
1.85763
0.0491297
0.101913
0.12947
0.149034
0.165227
0.179753
0.193474
0.206897
0.220346
0.234036
0.248105
0.26264
0.277687
0.29327
0.309395
0.326063
0.343269
0.361008
0.379275
0.398064
0.417367
0.437178
0.457489
0.478291
0.499575
0.521332
0.543553
0.56623
0.589354
0.612921
0.636925
0.661365
0.68624
0.71155
0.737301
0.763495
0.790139
0.817241
0.84481
0.872856
0.90139
0.930424
0.959971
0.990043
1.02065
1.05182
1.08354
1.11585
1.14875
1.18226
1.21639
1.25115
1.28655
1.32261
1.35934
1.39674
1.43481
1.47357
1.51302
1.55315
1.59397
1.63548
1.67767
1.72053
1.76406
1.80824
1.85306
1.89851
1.94457
1.99121
2.03841
2.08616
2.13442
2.18316
2.23236
2.28198
2.33199
2.38235
2.43302
2.48397
2.53517
2.58656
2.63811
2.68979
2.74156
2.79337
2.8452
2.89701
2.94877
3.00046
3.05205
3.1035
3.1548
3.20593
3.25685
3.30755
3.35801
3.40821
3.45812
3.50772
3.55699
3.6059
3.65442
3.7025
3.7501
3.79716
3.84362
3.88939
3.93437
3.97844
4.02146
4.06325
4.10363
4.14237
4.17922
4.2139
4.24611
4.27553
4.30183
4.32468
4.34376
4.35873
4.36892
4.37442
4.37533
4.37107
4.36155
4.34674
4.32668
4.30145
4.27124
4.23626
4.19682
4.15322
4.10586
4.05513
4.00146
3.94528
3.88703
3.82716
3.76609
3.70421
3.64182
3.57919
3.51657
3.45419
3.39229
3.33107
3.27071
3.21136
3.15315
3.09618
3.04053
2.98625
2.9334
2.88198
2.83202
2.78353
2.7365
2.69092
2.64677
2.60404
2.56269
2.5227
2.48404
2.44669
2.4106
2.37574
2.34209
2.30961
2.27828
2.24808
2.21898
2.191
2.16416
2.13851
2.1141
2.09099
2.06845
2.04157
0.0568156
0.114795
0.145373
0.167057
0.184951
0.200929
0.215926
0.230491
0.244981
0.259636
0.274619
0.290038
0.305962
0.322429
0.339461
0.357065
0.375242
0.393989
0.4133
0.433168
0.453586
0.474546
0.496038
0.518055
0.540588
0.563627
0.587164
0.611193
0.635706
0.660699
0.686169
0.712113
0.738532
0.765427
0.792802
0.820662
0.849014
0.877865
0.907225
0.937106
0.967517
0.998473
1.02999
1.06207
1.09474
1.12802
1.16191
1.19643
1.2316
1.26743
1.30395
1.34116
1.37907
1.41771
1.45707
1.49718
1.53804
1.57966
1.62203
1.66517
1.70908
1.75375
1.79918
1.84536
1.89229
1.93994
1.98832
2.03739
2.08714
2.13755
2.1886
2.24024
2.29246
2.34521
2.39847
2.45219
2.50634
2.56086
2.61572
2.67087
2.72626
2.78185
2.83759
2.89343
2.94932
3.00521
3.06107
3.11684
3.17249
3.22798
3.28328
3.33835
3.39315
3.44765
3.50183
3.55566
3.60912
3.66218
3.71482
3.76702
3.81877
3.87004
3.92081
3.97104
4.02071
4.06977
4.11818
4.16586
4.21275
4.25873
4.30369
4.34747
4.38991
4.43078
4.46984
4.50684
4.54146
4.57338
4.60225
4.6277
4.64941
4.66698
4.67999
4.68795
4.69117
4.68906
4.68147
4.66829
4.64952
4.62524
4.59559
4.56079
4.52113
4.47696
4.42864
4.37659
4.32126
4.26308
4.20254
4.14006
4.07611
4.01108
3.94533
3.87916
3.81285
3.74668
3.68089
3.61571
3.55134
3.48794
3.42566
3.36461
3.30488
3.24654
3.18962
3.13417
3.08021
3.02775
2.97677
2.92728
2.87926
2.83269
2.78754
2.74378
2.70139
2.66034
2.62058
2.5821
2.54485
2.50882
2.47398
2.44032
2.40784
2.37654
2.34648
2.31773
2.29038
2.26448
2.23936
2.21112
0.0639497
0.125654
0.158764
0.182267
0.20165
0.218919
0.235059
0.250653
0.266077
0.281587
0.297364
0.313534
0.33018
0.347357
0.365099
0.383424
0.402339
0.421845
0.44194
0.462619
0.483875
0.505701
0.528088
0.551029
0.574516
0.598541
0.623096
0.648177
0.673778
0.699894
0.726525
0.753669
0.781327
0.809503
0.838199
0.867422
0.897178
0.927478
0.95833
0.989747
1.02174
1.05432
1.08751
1.12132
1.15577
1.19087
1.22664
1.26311
1.30027
1.33817
1.3768
1.4162
1.45636
1.49732
1.53909
1.58166
1.62507
1.66931
1.71439
1.76033
1.8071
1.85473
1.9032
1.95251
2.00265
2.05361
2.10537
2.15791
2.21121
2.26525
2.31999
2.37541
2.43146
2.48812
2.54534
2.60306
2.66126
2.71987
2.77884
2.83812
2.89765
2.95738
3.01724
3.07718
3.13714
3.19705
3.25687
3.31654
3.37601
3.43522
3.49413
3.5527
3.61087
3.66861
3.72589
3.78267
3.83892
3.89461
3.94974
4.00427
4.05818
4.11148
4.16413
4.21613
4.26745
4.31808
4.36798
4.41711
4.46541
4.51282
4.55924
4.60454
4.64857
4.69116
4.73207
4.77106
4.80783
4.84206
4.8734
4.90147
4.92588
4.94625
4.96216
4.97316
4.97913
4.97974
4.97471
4.96387
4.94717
4.92465
4.89644
4.86274
4.82382
4.78
4.73167
4.67923
4.62313
4.56383
4.50179
4.4375
4.37141
4.30394
4.23549
4.16639
4.09697
4.02752
3.95833
3.88963
3.82165
3.75457
3.68855
3.62372
3.56017
3.49798
3.43721
3.3779
3.32007
3.26374
3.20891
3.15557
3.10372
3.05332
3.00437
2.95682
2.91065
2.86583
2.82233
2.78012
2.73917
2.69946
2.66097
2.6237
2.58766
2.55287
2.51939
2.48733
2.45677
2.42778
2.39971
2.36933
0.070168
0.134455
0.169638
0.194669
0.215325
0.233715
0.250862
0.267369
0.283622
0.299889
0.316361
0.333173
0.350421
0.368173
0.386472
0.405345
0.42481
0.444873
0.465537
0.4868
0.508658
0.531107
0.55414
0.577751
0.601935
0.626685
0.651996
0.677864
0.704285
0.731257
0.75878
0.786855
0.815484
0.84467
0.874419
0.904738
0.935634
0.967119
0.999202
1.0319
1.06522
1.09918
1.13379
1.16908
1.20507
1.24176
1.27918
1.31736
1.3563
1.39604
1.43658
1.47796
1.52018
1.56327
1.60724
1.6521
1.69788
1.74458
1.7922
1.84077
1.89027
1.94071
1.99209
2.0444
2.09764
2.15178
2.20681
2.26272
2.31948
2.37706
2.43542
2.49454
2.55437
2.61487
2.67599
2.73768
2.79989
2.86255
2.9256
2.98899
3.05264
3.11648
3.18045
3.24448
3.30849
3.37241
3.43618
3.49971
3.56296
3.62584
3.68832
3.75031
3.81178
3.87266
3.93291
3.9925
4.05138
4.10953
4.16692
4.22354
4.27935
4.33436
4.38857
4.44195
4.49451
4.54626
4.59716
4.64723
4.69642
4.74469
4.792
4.83825
4.88332
4.92707
4.9693
5.00981
5.0483
5.08449
5.11801
5.14848
5.17551
5.19867
5.21754
5.23169
5.24083
5.24456
5.24261
5.23472
5.2208
5.20083
5.1749
5.14318
5.1059
5.06337
5.01595
4.96403
4.90805
4.84848
4.7858
4.72048
4.653
4.58381
4.51333
4.44194
4.36999
4.29781
4.22571
4.15395
4.08277
4.01238
3.94295
3.87463
3.80753
3.74173
3.6773
3.6143
3.55275
3.49267
3.43407
3.37695
3.3213
3.2671
3.21432
3.16295
3.11296
3.06431
3.01698
2.97095
2.92618
2.88266
2.84037
2.79934
2.75956
2.72108
2.68398
2.64837
2.61433
2.58195
2.5506
2.5176
0.0754103
0.14129
0.178107
0.204382
0.226093
0.245425
0.263431
0.280723
0.297692
0.314612
0.331677
0.349029
0.36677
0.384977
0.403702
0.422981
0.442837
0.463285
0.484333
0.505985
0.528242
0.551101
0.574562
0.598621
0.623274
0.648518
0.67435
0.700769
0.727772
0.755361
0.783536
0.812301
0.841659
0.871617
0.902182
0.93336
0.965163
0.997601
1.03069
1.06444
1.09886
1.13398
1.16981
1.20638
1.2437
1.28179
1.32067
1.36038
1.40092
1.44232
1.48462
1.52781
1.57194
1.61701
1.66305
1.71008
1.7581
1.80714
1.8572
1.9083
1.96042
2.01359
2.06779
2.12302
2.17928
2.23654
2.29479
2.354
2.41416
2.47523
2.53718
2.59996
2.66354
2.72785
2.79285
2.85848
2.92468
2.99137
3.0585
3.12598
3.19374
3.26169
3.32977
3.39787
3.46592
3.53383
3.60151
3.66889
3.73588
3.80241
3.86839
3.93375
3.99843
4.06235
4.12548
4.18774
4.2491
4.30952
4.36897
4.42742
4.48486
4.54127
4.59666
4.65104
4.7044
4.75677
4.80816
4.85858
4.90804
4.95654
5.00406
5.05056
5.09597
5.14017
5.18304
5.22439
5.26399
5.30155
5.33675
5.36921
5.39853
5.42427
5.44599
5.46324
5.47564
5.4828
5.48432
5.47996
5.46943
5.45272
5.42985
5.40095
5.3662
5.32587
5.28028
5.22981
5.17487
5.11594
5.05347
4.98797
4.91991
4.84977
4.77799
4.70499
4.63114
4.55682
4.48235
4.40802
4.33411
4.26082
4.18837
4.1169
4.04654
3.97741
3.90956
3.84307
3.77798
3.7143
3.65205
3.59124
3.53186
3.47389
3.41732
3.36213
3.30828
3.25577
3.20455
3.15461
3.10592
3.05848
3.01228
2.96733
2.92367
2.88133
2.84042
2.80103
2.76327
2.72721
2.69228
2.65617
0.0796759
0.146296
0.184339
0.211586
0.234133
0.254224
0.27293
0.290866
0.308427
0.325884
0.343433
0.361216
0.379342
0.397891
0.41692
0.436473
0.456581
0.477264
0.498537
0.520408
0.542885
0.56597
0.589667
0.613976
0.638897
0.664431
0.690578
0.717338
0.744713
0.772706
0.801321
0.830565
0.860443
0.890963
0.922136
0.95397
0.986478
1.01967
1.05357
1.08818
1.12352
1.15962
1.1965
1.23417
1.27266
1.312
1.3522
1.39329
1.43531
1.47826
1.52219
1.5671
1.61304
1.66001
1.70803
1.75714
1.80735
1.85866
1.9111
1.96467
2.01938
2.07522
2.13221
2.19033
2.24957
2.30992
2.37136
2.43387
2.49741
2.56195
2.62746
2.69389
2.76118
2.82929
2.89816
2.96771
3.03788
3.10859
3.17976
3.25131
3.32315
3.39519
3.46733
3.53947
3.61152
3.68337
3.75493
3.82609
3.89676
3.96684
4.03624
4.10487
4.17265
4.2395
4.30534
4.37012
4.43377
4.49624
4.55751
4.61752
4.67626
4.73373
4.78992
4.84484
4.89851
4.95096
5.00224
5.05237
5.10141
5.14939
5.19634
5.24227
5.28716
5.33097
5.3736
5.41493
5.45479
5.49294
5.5291
5.5629
5.59396
5.62183
5.64607
5.66621
5.68182
5.69246
5.69776
5.69734
5.69079
5.67794
5.65886
5.63357
5.60221
5.56498
5.52216
5.47409
5.42116
5.36381
5.3025
5.23772
5.16996
5.09971
5.02743
4.95357
4.87854
4.80273
4.7265
4.65018
4.57405
4.49835
4.42331
4.3491
4.27586
4.20372
4.13275
4.06304
3.99462
3.92755
3.86182
3.79746
3.73446
3.67282
3.61253
3.55355
3.49589
3.4395
3.38437
3.33049
3.27784
3.2264
3.1762
3.12724
3.07956
3.03323
2.98833
2.94499
2.9033
2.86334
2.82456
2.785
0.0829843
0.149619
0.188513
0.216477
0.239652
0.260319
0.279561
0.297993
0.316008
0.333875
0.351787
0.369887
0.388284
0.40706
0.426277
0.445984
0.466215
0.486999
0.508354
0.530296
0.552838
0.575988
0.599754
0.624142
0.649157
0.674804
0.701087
0.72801
0.755576
0.783793
0.812669
0.842213
0.872434
0.903345
0.934956
0.96728
1.00033
1.03412
1.06867
1.104
1.14012
1.17707
1.21486
1.25352
1.29307
1.33355
1.37498
1.41738
1.4608
1.50524
1.55074
1.59733
1.64503
1.69387
1.74387
1.79505
1.84742
1.90101
1.95583
2.01188
2.06918
2.12772
2.1875
2.24852
2.31076
2.37421
2.43885
2.50465
2.57157
2.63959
2.70865
2.77871
2.84971
2.92159
2.99429
3.06772
3.14182
3.21649
3.29165
3.36721
3.44305
3.51909
3.5952
3.67129
3.74723
3.82291
3.89821
3.97303
4.04723
4.12072
4.19338
4.2651
4.33579
4.40536
4.4737
4.54075
4.60643
4.67068
4.73344
4.79468
4.85435
4.91245
4.96897
5.02393
5.07736
5.12929
5.17978
5.2289
5.27674
5.32336
5.36884
5.41326
5.45666
5.49906
5.54042
5.58071
5.61981
5.65757
5.69375
5.72804
5.76008
5.78945
5.81569
5.83833
5.8569
5.87093
5.88001
5.88379
5.88177
5.87331
5.85864
5.83772
5.81058
5.77737
5.73828
5.6936
5.64369
5.58894
5.52979
5.46672
5.40022
5.33078
5.25889
5.18501
5.10958
5.03304
4.95576
4.87809
4.80035
4.7228
4.6457
4.56922
4.49354
4.41879
4.34507
4.27247
4.20103
4.13082
4.06185
3.99415
3.92772
3.86256
3.79866
3.73601
3.67459
3.61439
3.55539
3.49759
3.44096
3.38552
3.33127
3.27824
3.22648
3.17605
3.12706
3.07963
3.03385
2.98981
2.947
2.90374
0.0853775
0.151403
0.190803
0.219245
0.242853
0.26392
0.283535
0.302311
0.320637
0.33878
0.356928
0.375224
0.393775
0.412664
0.431954
0.451699
0.471937
0.4927
0.514013
0.535898
0.558372
0.581451
0.605147
0.629472
0.654437
0.680052
0.706326
0.733266
0.760881
0.789181
0.818179
0.847889
0.878324
0.9095
0.941431
0.974132
1.00762
1.04191
1.07702
1.11297
1.14979
1.18749
1.22613
1.26572
1.3063
1.34789
1.39052
1.43423
1.47904
1.52498
1.57209
1.62039
1.66991
1.72067
1.77269
1.826
1.88062
1.93655
1.99382
2.05243
2.11239
2.17369
2.23634
2.30032
2.36561
2.43221
2.50008
2.5692
2.63953
2.71102
2.78362
2.85729
2.93196
3.00755
3.08401
3.16124
3.23917
3.31768
3.3967
3.47611
3.5558
3.63566
3.71556
3.79538
3.875
3.95428
4.03309
4.1113
4.18877
4.26539
4.34102
4.41553
4.48882
4.56077
4.63127
4.70024
4.76757
4.83319
4.89704
4.95904
5.01916
5.07739
5.13369
5.1881
5.24063
5.29134
5.34031
5.38761
5.43337
5.4777
5.52074
5.56262
5.60344
5.6433
5.68225
5.72031
5.7575
5.79374
5.82886
5.86262
5.89472
5.92475
5.95228
5.97684
5.99793
6.01507
6.02783
6.03592
6.0385
6.03516
6.02545
6.00958
5.98748
5.95918
5.9248
5.88456
5.83874
5.78768
5.73178
5.67149
5.60729
5.53969
5.46916
5.3962
5.32128
5.24484
5.16729
5.08902
5.01037
4.93163
4.85306
4.77489
4.69729
4.62041
4.54438
4.46929
4.39521
4.3222
4.2503
4.17953
4.10991
4.04145
3.97414
3.90798
3.84296
3.77907
3.71631
3.65465
3.59412
3.5347
3.47643
3.41933
3.36347
3.30891
3.25577
3.20416
3.1542
3.10597
3.05899
3.01188
0.0868015
0.151648
0.191292
0.220033
0.243911
0.265222
0.285057
0.304029
0.322525
0.340808
0.359064
0.377432
0.39602
0.41491
0.434167
0.453844
0.473983
0.494621
0.515786
0.537507
0.559808
0.582709
0.606229
0.630386
0.655196
0.680675
0.706838
0.733697
0.761266
0.789561
0.818601
0.848403
0.878986
0.910371
0.942575
0.975618
1.00952
1.04429
1.07995
1.11652
1.154
1.19248
1.23198
1.27254
1.31419
1.35695
1.40087
1.44597
1.4923
1.53987
1.58871
1.63887
1.69035
1.74319
1.7974
1.85301
1.91004
1.96849
2.02837
2.08969
2.15246
2.21666
2.2823
2.34935
2.41779
2.48761
2.55877
2.63124
2.70497
2.77992
2.85602
2.93323
3.01147
3.09066
3.17073
3.25158
3.33313
3.41526
3.49787
3.58086
3.66409
3.74744
3.83078
3.91397
3.99688
4.07935
4.16125
4.24242
4.32271
4.40199
4.48011
4.55694
4.63232
4.70615
4.77829
4.84864
4.91708
4.98351
5.04785
5.11003
5.16999
5.22768
5.28309
5.33623
5.38711
5.43582
5.48241
5.527
5.56973
5.61076
5.6503
5.68852
5.72562
5.76175
5.79705
5.83164
5.86567
5.89915
5.93203
5.96413
5.99521
6.02494
6.05289
6.07863
6.10165
6.12146
6.13758
6.14959
6.15707
6.15914
6.15525
6.14506
6.12879
6.1063
6.07764
6.04291
6.00232
5.95611
5.90462
5.84828
5.78754
5.72289
5.65481
5.58381
5.51038
5.43498
5.35807
5.28003
5.20126
5.12206
5.04273
4.96351
4.88459
4.80616
4.72835
4.65126
4.57499
4.4996
4.42515
4.35167
4.27918
4.20771
4.13726
4.06783
3.99942
3.93203
3.86566
3.80031
3.73598
3.6727
3.61049
3.54939
3.48947
3.43081
3.37352
3.31772
3.26353
3.21105
3.15986
3.10883
0.0875717
0.151006
0.190541
0.219298
0.243209
0.264555
0.284422
0.303419
0.32193
0.340211
0.358447
0.376773
0.395293
0.41409
0.433229
0.452765
0.472741
0.493197
0.514166
0.535681
0.557768
0.580454
0.603762
0.627715
0.652336
0.677646
0.703666
0.730415
0.757913
0.786183
0.815249
0.845135
0.875865
0.907464
0.939956
0.973366
1.00772
1.04303
1.07931
1.1166
1.15488
1.19428
1.23483
1.27654
1.31946
1.36361
1.40905
1.4558
1.50389
1.55337
1.60425
1.65655
1.71031
1.76554
1.82225
1.88046
1.94018
2.00143
2.06419
2.12847
2.19427
2.26158
2.33037
2.40064
2.47234
2.54545
2.61994
2.69575
2.77284
2.85116
2.93064
3.01121
3.0928
3.17533
3.25871
3.34284
3.42762
3.51295
3.59871
3.68477
3.77101
3.8573
3.94349
4.02944
4.115
4.2
4.28431
4.36775
4.45016
4.53138
4.61126
4.68965
4.76638
4.84133
4.91435
4.98531
5.05408
5.12054
5.18459
5.24614
5.30511
5.36145
5.41512
5.46611
5.51446
5.56023
5.60351
5.64441
5.68309
5.71974
5.75465
5.78808
5.82026
5.85146
5.88189
5.91163
5.94085
5.96994
5.99899
6.02794
6.05665
6.08485
6.1122
6.13827
6.16261
6.18472
6.20408
6.22017
6.23251
6.24068
6.24335
6.24
6.23031
6.21453
6.19262
6.16452
6.13035
6.09022
6.04441
5.99326
5.93722
5.87674
5.8123
5.74439
5.67354
5.60023
5.52493
5.44808
5.37006
5.29124
5.21193
5.1324
5.05287
4.97353
4.89454
4.81603
4.7381
4.66083
4.58429
4.50852
4.43357
4.35946
4.2862
4.21381
4.1423
4.07168
4.00194
3.9331
3.86518
3.7982
3.7322
3.66723
3.60336
3.54068
3.47931
3.41937
3.36099
3.30428
3.24887
3.19391
0.0875376
0.149234
0.188342
0.216933
0.240733
0.261981
0.281751
0.300645
0.31904
0.337192
0.355281
0.373441
0.391774
0.410363
0.429273
0.448559
0.468269
0.488444
0.509126
0.530348
0.552147
0.574555
0.597602
0.621321
0.64574
0.67089
0.696801
0.7235
0.751021
0.779392
0.808644
0.838807
0.869907
0.901973
0.935038
0.96914
1.00432
1.04058
1.07792
1.11638
1.15593
1.19669
1.23871
1.28203
1.3267
1.37276
1.42023
1.46917
1.51961
1.57158
1.62508
1.68014
1.73676
1.79496
1.85473
1.91609
1.97903
2.04355
2.10964
2.1773
2.24649
2.31721
2.38942
2.46309
2.53818
2.61466
2.69248
2.77158
2.85191
2.9334
3.01599
3.0996
3.18415
3.26955
3.35572
3.44255
3.52994
3.61777
3.70592
3.79428
3.8827
3.97104
4.05917
4.14693
4.23417
4.32071
4.4064
4.49107
4.57453
4.65663
4.73718
4.81604
4.89303
4.96799
5.04079
5.11126
5.17925
5.24463
5.30727
5.36708
5.42395
5.47781
5.52862
5.57634
5.62099
5.66267
5.70146
5.73748
5.77091
5.80189
5.83053
5.85736
5.88275
5.90709
5.93069
5.95387
5.97744
6.00142
6.02593
6.05101
6.07659
6.10246
6.12836
6.15394
6.17878
6.20241
6.22429
6.24385
6.26053
6.27388
6.28307
6.28782
6.28707
6.27954
6.26613
6.24648
6.2201
6.18742
6.14864
6.10407
6.05409
5.99913
5.93961
5.87605
5.80897
5.73889
5.66628
5.59162
5.51532
5.43777
5.35933
5.28027
5.20086
5.1213
5.04178
4.96245
4.88342
4.80479
4.72665
4.64905
4.57204
4.49567
4.41997
4.34495
4.27064
4.19705
4.1242
4.0521
3.9808
3.91031
3.84068
3.77199
3.70429
3.6377
3.57234
3.50833
3.44581
3.38492
3.32532
3.26647
0.0868354
0.146018
0.184476
0.212713
0.236231
0.257221
0.276746
0.295405
0.313572
0.331498
0.349359
0.367288
0.385389
0.403743
0.422419
0.441474
0.460961
0.480926
0.501413
0.522465
0.544124
0.566428
0.589418
0.613133
0.637615
0.662902
0.689028
0.71603
0.74395
0.772828
0.802712
0.833663
0.865666
0.898758
0.932983
0.968376
1.00496
1.04267
1.0816
1.12183
1.1634
1.20637
1.25078
1.29667
1.34406
1.39301
1.44352
1.49563
1.54935
1.60471
1.66171
1.72034
1.78059
1.84247
1.90596
1.97104
2.03771
2.10593
2.17569
2.24695
2.31969
2.39386
2.46942
2.54634
2.62457
2.70404
2.78472
2.86653
2.94942
3.03332
3.11816
3.20386
3.29034
3.37752
3.4653
3.55358
3.64226
3.73123
3.82037
3.90956
3.99866
4.08754
4.17605
4.26404
4.35136
4.43783
4.52329
4.60757
4.69047
4.77184
4.85148