/*--------------------------------*- C++ -*----------------------------------*\
| =========                 |                                                 |
| \\      /  F ield         | OpenFOAM: The Open Source CFD Toolbox           |
|  \\    /   O peration     | Version:  2212                                  |
|   \\  /    A nd           | Website:  www.openfoam.com                      |
|    \\/     M anipulation  |                                                 |
\*---------------------------------------------------------------------------*/
FoamFile
{
    version     2.0;
    format      ascii;
    arch        "LSB;label=32;scalar=64";
    class       volScalarField;
    location    "150";
    object      nut;
}
// * * * * * * * * * * * * * * * * * * * * * * * * * * * * * * * * * * * * * //

dimensions      [0 2 -1 0 0 0 0];

internalField   nonuniform List<scalar> 
12225
(
2.70743e-05
3.55747e-05
4.05232e-05
4.31925e-05
4.44516e-05
4.49646e-05
4.49112e-05
4.48721e-05
4.45038e-05
4.41857e-05
4.38525e-05
4.35248e-05
4.3229e-05
4.2948e-05
4.27143e-05
4.24787e-05
4.23188e-05
4.20951e-05
0.000212992
8.46429e-05
5.59086e-05
4.40583e-05
3.83763e-05
3.53568e-05
3.3845e-05
3.30873e-05
3.28549e-05
3.28707e-05
3.32264e-05
3.35844e-05
3.42435e-05
3.47755e-05
3.55995e-05
3.61999e-05
3.7141e-05
3.76337e-05
0.000656953
0.00030656
0.000193992
0.000142124
0.000113219
9.45055e-05
8.20261e-05
7.33209e-05
6.68098e-05
6.19648e-05
5.80568e-05
5.51153e-05
5.25509e-05
5.07198e-05
4.89216e-05
4.78612e-05
4.63992e-05
4.54024e-05
0.000862986
0.00060945
0.000451559
0.000350916
0.000289254
0.000246541
0.000216666
0.00019433
0.000177764
0.000164321
0.000154061
0.000145098
0.000138226
0.000131774
0.00012689
0.00012212
0.000118128
0.000113728
0.000877432
0.000776395
0.000690781
0.000592019
0.000517262
0.000458152
0.000413454
0.000377278
0.00034967
0.000326014
0.000307916
0.00029136
0.000278954
0.000266675
0.000257912
0.000248453
0.000241741
0.000234156
0.00085841
0.00083529
0.00080725
0.00075315
0.000699342
0.000648289
0.000604814
0.000565905
0.000534206
0.000505409
0.000482512
0.000460786
0.000444124
0.000427165
0.000415024
0.000401323
0.000392288
0.000380666
0.000854258
0.000849543
0.000840707
0.00082304
0.000798584
0.000768489
0.000739171
0.000709577
0.000683361
0.000657758
0.000636227
0.000614846
0.000597748
0.000579858
0.000566598
0.000551368
0.000541162
0.000527369
0.000852389
0.000851593
0.000849791
0.000844527
0.000835946
0.000824526
0.000810173
0.000793476
0.000777246
0.000760033
0.000744576
0.00072832
0.000714603
0.000699814
0.000688227
0.000674872
0.000665359
0.000652571
0.000851902
0.000851481
0.000851079
0.000849883
0.000847544
0.00084362
0.000838593
0.000831275
0.000823651
0.000815
0.000806308
0.000796568
0.000787818
0.000778099
0.00076988
0.000760578
0.000753036
0.000743899
0.000851814
0.000851374
0.000851073
0.00085061
0.000850034
0.00084881
0.000847332
0.00084486
0.000841999
0.000838309
0.000834508
0.000829871
0.000825435
0.000820289
0.000815589
0.000810326
0.000805569
0.000799788
0.000851799
0.000851357
0.000851021
0.000850624
0.000850325
0.000849825
0.000849339
0.000848519
0.000847606
0.000846263
0.000844876
0.000843013
0.000841207
0.000838891
0.00083683
0.00083412
0.00083206
0.000828869
0.000851792
0.000851359
0.000851001
0.000850611
0.000850306
0.000849938
0.000849632
0.000849211
0.000848816
0.000848236
0.000847678
0.000846879
0.000846142
0.000845098
0.00084422
0.000842925
0.000841986
0.000840439
0.000851787
0.000851362
0.000850989
0.000850608
0.00085028
0.000849936
0.000849645
0.00084932
0.000849041
0.000848699
0.0008484
0.000848003
0.000847662
0.000847183
0.000846791
0.000846217
0.000845778
0.000845109
0.000851783
0.000851364
0.00085098
0.000850605
0.000850263
0.000849926
0.000849622
0.000849316
0.000849044
0.00084876
0.000848508
0.000848234
0.000847992
0.000847717
0.000847475
0.00084719
0.000846941
0.000846641
0.000851781
0.000851364
0.000850974
0.0008506
0.000850251
0.000849916
0.000849603
0.000849301
0.000849019
0.000848745
0.000848489
0.000848239
0.000848006
0.000847775
0.000847558
0.000847343
0.000847139
0.000846936
0.00085178
0.000851363
0.00085097
0.000850596
0.000850243
0.000849907
0.000849589
0.000849286
0.000848999
0.000848724
0.000848464
0.000848214
0.000847977
0.00084775
0.000847533
0.000847324
0.000847125
0.000846934
0.000851779
0.000851362
0.000850967
0.000850592
0.000850236
0.000849899
0.000849579
0.000849274
0.000848984
0.000848707
0.000848444
0.000848192
0.000847952
0.000847723
0.000847503
0.000847293
0.000847092
0.000846899
0.000851779
0.000851362
0.000850966
0.000850589
0.000850233
0.000849894
0.000849572
0.000849265
0.000848974
0.000848696
0.00084843
0.000848177
0.000847935
0.000847703
0.000847482
0.000847269
0.000847066
0.000846872
0.000851779
0.000851362
0.000850965
0.000850589
0.000850232
0.000849892
0.00084957
0.000849262
0.00084897
0.000848691
0.000848424
0.00084817
0.000847926
0.000847694
0.000847471
0.000847258
0.000847053
0.000846858
0.000851779
0.000851362
0.000850966
0.000850591
0.000850234
0.000849895
0.000849573
0.000849266
0.000848973
0.000848695
0.000848428
0.000848174
0.000847929
0.000847696
0.000847472
0.000847258
0.000847051
0.000846853
0.000851779
0.000851364
0.000850968
0.000850595
0.000850238
0.000849902
0.000849578
0.000849274
0.000848979
0.0008487
0.000848426
0.000848168
0.00084791
0.000847666
0.000847419
0.000847186
0.000846945
0.000846721
0.000851778
0.000851367
0.000850969
0.000850603
0.000850243
0.00084991
0.000849573
0.000849254
0.000848916
0.000848587
0.000848222
0.000847864
0.000847455
0.000847058
0.000846593
0.000846158
0.000845633
0.000845166
0.000851779
0.000851381
0.000850972
0.000850624
0.000850209
0.000849789
0.000849233
0.000848615
0.000847803
0.000846894
0.000845767
0.000844557
0.000843122
0.000841659
0.000839953
0.000838324
0.000836375
0.000834686
0.000851855
0.000851467
0.000850932
0.000850394
0.000849126
0.000847457
0.000844946
0.000841938
0.00083807
0.000833843
0.000828955
0.00082392
0.000818442
0.000812982
0.000807259
0.000801701
0.00079581
0.00079074
0.000852785
0.00085138
0.000849189
0.000845094
0.000836883
0.000827815
0.000815745
0.000802817
0.000788366
0.000774357
0.000759647
0.000746057
0.000732092
0.000719651
0.00070678
0.000695796
0.000684033
0.000674632
0.00085821
0.000842299
0.00082896
0.000803014
0.000769254
0.00073547
0.000700795
0.000669693
0.000639482
0.000613572
0.000588586
0.000567712
0.000547276
0.000530612
0.000513811
0.000500547
0.000486496
0.000475986
0.000864335
0.000785613
0.000712706
0.000628303
0.000558274
0.000503082
0.000455736
0.000418853
0.000386605
0.00036157
0.000338736
0.000321196
0.000304378
0.000291729
0.000278864
0.000269495
0.00025931
0.000252238
0.000775951
0.000540066
0.000397936
0.000312962
0.000258151
0.000219629
0.000190497
0.000169556
0.000152541
0.000139979
0.000129081
0.000121001
0.000113509
0.000108056
0.000102612
9.87881e-05
9.4662e-05
9.18874e-05
0.000323579
0.000164842
0.000111415
8.60749e-05
7.08248e-05
6.13533e-05
5.50169e-05
5.08843e-05
4.7952e-05
4.60087e-05
4.45899e-05
4.36876e-05
4.30394e-05
4.26952e-05
4.24563e-05
4.24406e-05
4.24382e-05
4.26254e-05
3.26574e-05
3.90518e-05
4.3892e-05
4.69714e-05
4.93654e-05
5.11697e-05
5.25341e-05
5.3459e-05
5.41136e-05
5.44625e-05
5.46897e-05
5.4696e-05
5.46527e-05
5.45481e-05
5.43749e-05
5.41672e-05
5.39417e-05
5.37047e-05
5.00086e-06
1.38539e-05
1.64403e-05
1.83002e-05
1.96268e-05
2.0639e-05
2.15238e-05
2.22952e-05
2.30081e-05
2.3719e-05
2.44871e-05
2.53671e-05
2.63548e-05
2.74016e-05
2.84758e-05
2.9565e-05
3.06661e-05
3.1778e-05
3.29009e-05
3.40338e-05
3.51765e-05
3.63287e-05
3.74914e-05
3.86674e-05
3.98424e-05
4.10116e-05
4.21744e-05
4.33306e-05
4.44818e-05
4.56328e-05
4.67929e-05
4.7964e-05
4.91216e-05
5.02708e-05
5.14109e-05
5.25435e-05
5.3669e-05
5.47899e-05
5.59068e-05
5.70208e-05
5.81325e-05
5.92437e-05
6.03543e-05
6.14654e-05
6.25761e-05
6.36852e-05
6.4791e-05
6.58968e-05
6.70011e-05
6.81056e-05
6.92093e-05
7.03134e-05
7.1417e-05
7.25212e-05
7.36251e-05
7.47295e-05
7.58333e-05
7.69376e-05
7.80408e-05
7.91442e-05
8.0246e-05
8.13475e-05
8.24468e-05
8.35453e-05
8.46408e-05
8.57348e-05
8.6825e-05
8.7913e-05
8.89965e-05
9.0077e-05
9.11522e-05
9.22238e-05
9.32893e-05
9.43505e-05
9.54048e-05
9.64542e-05
9.74957e-05
9.85317e-05
9.95593e-05
0.000100581
0.000101593
0.000102599
0.000103596
0.000104585
0.000105564
0.000106536
0.000107497
0.00010845
0.000109392
0.000110325
0.000111247
0.000112158
0.000113055
0.000113938
0.000114805
0.000115652
0.000116476
0.000117271
0.000118032
0.00011882
0.000119576
0.000120318
0.000121042
0.000121746
0.000122429
0.000123091
0.000123729
0.000124342
0.000124928
0.000125486
0.000126011
0.000126503
0.000126958
0.000127373
0.000127745
0.000128071
0.000128351
0.000128599
0.00012888
0.000128852
0.000129019
0.000128931
0.000128796
0.000128672
0.000128418
0.00012809
0.00012768
0.000127224
0.000126615
0.000125928
0.00012515
0.000124286
0.00012334
0.000122315
0.000121218
0.000120053
0.000118829
0.000117548
0.000116219
0.000114844
0.000113394
0.000111783
0.000110675
0.000109683
0.000108687
0.000107672
0.000106642
0.000105602
0.000104557
0.000103512
0.000102471
0.000101436
0.000100408
9.93899e-05
9.83828e-05
9.73885e-05
9.64081e-05
9.54424e-05
9.44921e-05
9.35577e-05
9.26416e-05
9.17387e-05
9.08525e-05
8.99882e-05
8.9151e-05
8.83374e-05
8.75459e-05
8.67761e-05
8.6029e-05
8.53052e-05
8.4604e-05
8.39243e-05
8.32646e-05
8.26222e-05
8.19936e-05
8.13709e-05
8.07374e-05
8.00718e-05
7.93872e-05
7.71662e-05
7.97115e-06
4.38595e-05
8.98841e-05
0.000123283
0.000144478
0.000157055
0.000164214
0.00016905
0.000173152
0.000177171
0.000181253
0.000185331
0.000189426
0.000193653
0.000198068
0.000202698
0.000207564
0.000212686
0.000218081
0.000223759
0.000229727
0.000235988
0.000242543
0.00024937
0.000256435
0.000263685
0.000271105
0.000278645
0.000286261
0.000293913
0.000301585
0.000309305
0.000317035
0.000324764
0.000332472
0.000340134
0.000347724
0.000355251
0.000362796
0.000370357
0.000377941
0.000385563
0.000393245
0.000401008
0.000408893
0.000416897
0.000424934
0.000433008
0.000441127
0.000449293
0.000457514
0.000465793
0.000474135
0.000482543
0.000491023
0.000499575
0.000508203
0.000516908
0.000525693
0.000534556
0.000543499
0.000552519
0.000561619
0.000570795
0.000580048
0.000589373
0.000598771
0.000608236
0.000617769
0.000627364
0.000637022
0.000646737
0.000656512
0.000666342
0.000676229
0.000686169
0.000696166
0.000706216
0.000716324
0.00072649
0.000736718
0.000747012
0.000757379
0.000767825
0.000778361
0.000788993
0.000799735
0.0008106
0.000821606
0.000832765
0.000844097
0.00085561
0.000867307
0.000879181
0.000891211
0.00090334
0.00091546
0.00092739
0.000938869
0.000949634
0.000960589
0.000971637
0.00098279
0.000994042
0.00100539
0.0010168
0.00102828
0.0010398
0.00105133
0.00106284
0.00107429
0.00108564
0.00109684
0.00110784
0.00111857
0.00112897
0.00113903
0.0011488
0.00115854
0.0011671
0.00117527
0.00118227
0.00118725
0.00119324
0.00119771
0.00120116
0.00120359
0.00120513
0.00120564
0.00120511
0.00120355
0.00120099
0.00119747
0.00119302
0.0011877
0.00118157
0.00117469
0.00116712
0.00115891
0.00115005
0.00114028
0.00112814
0.00111409
0.00109922
0.00108402
0.00106874
0.0010535
0.00103837
0.00102343
0.00100872
0.000994275
0.000980119
0.00096627
0.000952744
0.000939552
0.000926702
0.000914203
0.000902059
0.000890272
0.000878842
0.000867771
0.000856973
0.000846594
0.000836596
0.000826949
0.00081763
0.000808622
0.000799914
0.000791491
0.000783344
0.000775453
0.000767794
0.000760339
0.000753047
0.000745866
0.0007387
0.000731335
0.000723541
0.000709074
0.00067218
9.86399e-06
7.00638e-05
0.000143417
0.000202219
0.000245815
0.000277202
0.00029963
0.000316095
0.000328913
0.000339682
0.000349414
0.000358724
0.000368004
0.000377508
0.000387386
0.000397714
0.000408532
0.000419854
0.000431677
0.000443978
0.000456704
0.000469857
0.000483542
0.000497822
0.000512815
0.000528191
0.000543805
0.00055958
0.000575459
0.000591397
0.000607365
0.000623343
0.000639307
0.000655248
0.000671155
0.000687022
0.000702852
0.000718664
0.000734482
0.000750312
0.000766099
0.000781904
0.000797752
0.000813659
0.00082964
0.000845697
0.000861828
0.000878042
0.000894349
0.00091076
0.000927284
0.000943932
0.000960711
0.000977629
0.000994693
0.00101191
0.00102928
0.00104681
0.0010645
0.00108235
0.00110036
0.00111853
0.00113685
0.00115533
0.00117395
0.00119271
0.00121161
0.00123065
0.00124981
0.00126908
0.00128847
0.00130796
0.00132756
0.00134725
0.00136703
0.0013869
0.00140684
0.00142686
0.00144696
0.00146714
0.00148739
0.00150772
0.00152814
0.00154864
0.00156924
0.00158995
0.00161077
0.00163172
0.00165281
0.00167405
0.00169546
0.00171702
0.00173875
0.0017606
0.00178255
0.00180455
0.0018265
0.00184833
0.00186992
0.00189134
0.00191295
0.00193473
0.00195666
0.00197875
0.00200096
0.00202328
0.00204568
0.0020681
0.00209051
0.00211285
0.00213504
0.002157
0.00217863
0.00219984
0.00222051
0.00224053
0.00225979
0.00227819
0.00229605
0.0023123
0.00232793
0.00234081
0.00235079
0.00236137
0.0023697
0.00237604
0.0023804
0.00238283
0.00238326
0.00238167
0.00237809
0.00237256
0.00236516
0.00235598
0.00234511
0.00233267
0.00231877
0.00230355
0.00228708
0.00226939
0.00225024
0.00222879
0.00220511
0.00218007
0.00215427
0.0021281
0.00210176
0.00207544
0.00204924
0.00202327
0.0019976
0.00197229
0.0019474
0.00192296
0.00189902
0.00187559
0.0018527
0.00183037
0.00180861
0.00178743
0.00176683
0.00174678
0.00172738
0.00170858
0.00169037
0.0016727
0.00165557
0.00163896
0.00162284
0.0016072
0.001592
0.00157721
0.00156278
0.00154862
0.00153464
0.00152066
0.00150632
0.00149102
0.00146924
0.0014177
1.11664e-05
9.14772e-05
0.000186707
0.000264309
0.000324296
0.00036952
0.000403693
0.000430028
0.000451129
0.000468979
0.000485015
0.000500222
0.000515254
0.000530519
0.000546262
0.000562618
0.000579653
0.000597396
0.000615855
0.000635034
0.000654944
0.000675541
0.000696674
0.000718212
0.000739964
0.000761954
0.000784174
0.000806574
0.000829099
0.000851701
0.000874333
0.000896949
0.00091951
0.000942045
0.000964554
0.000987038
0.00100951
0.00103198
0.00105449
0.00107708
0.0010997
0.00112233
0.001145
0.00116772
0.00119051
0.00121337
0.00123634
0.00125941
0.00128261
0.00130594
0.00132943
0.00135309
0.00137692
0.00140094
0.00142516
0.00144958
0.00147422
0.00149907
0.00152415
0.00154944
0.00157495
0.00160068
0.00162663
0.00165278
0.00167913
0.00170568
0.00173242
0.00175934
0.00178642
0.00181367
0.00184107
0.00186861
0.00189628
0.00192407
0.00195198
0.00197999
0.00200809
0.00203628
0.00206455
0.0020929
0.00212132
0.00214981
0.00217837
0.002207
0.0022357
0.00226448
0.00229333
0.00232226
0.00235128
0.00238039
0.00240958
0.00243886
0.00246821
0.00249761
0.00252702
0.00255642
0.00258575
0.00261496
0.00264407
0.0026732
0.00270246
0.00273186
0.0027614
0.00279105
0.00282081
0.00285065
0.00288052
0.00291039
0.0029402
0.00296988
0.00299935
0.00302852
0.00305727
0.00308548
0.00311303
0.00313976
0.00316554
0.00319022
0.00321374
0.00323578
0.00325701
0.00327482
0.0032893
0.00330364
0.00331553
0.00332485
0.00333158
0.0033357
0.00333716
0.00333594
0.00333206
0.00332558
0.00331657
0.00330514
0.00329141
0.00327552
0.00325761
0.00323784
0.00321632
0.00319311
0.00316809
0.00314089
0.00311158
0.0030807
0.00304876
0.00301614
0.00298311
0.00294987
0.00291659
0.0028834
0.00285041
0.00281772
0.0027854
0.00275352
0.00272214
0.0026913
0.00266104
0.00263139
0.00260239
0.00257405
0.00254638
0.00251938
0.00249311
0.00246755
0.00244269
0.00241852
0.00239501
0.00237215
0.00234993
0.00232831
0.00230727
0.00228679
0.0022668
0.00224723
0.00222797
0.00220881
0.00218936
0.00216879
0.00214222
0.00208856
1.21157e-05
0.00010934
0.00022301
0.000316483
0.00039062
0.000448124
0.000492954
0.000528532
0.00055767
0.000582584
0.000604954
0.000625999
0.000646563
0.000667205
0.00068827
0.000709962
0.000732383
0.000755576
0.000779541
0.000804254
0.000829666
0.000855703
0.000882265
0.000909252
0.000936574
0.000964176
0.000992011
0.00102003
0.00104817
0.0010764
0.00110468
0.001133
0.00116134
0.00118965
0.00121791
0.00124613
0.0012743
0.00130242
0.00133051
0.00135855
0.00138654
0.00141452
0.00144254
0.0014706
0.00149873
0.00152696
0.00155529
0.00158375
0.00161236
0.00164113
0.00167009
0.00169924
0.00172859
0.00175817
0.00178796
0.00181799
0.00184828
0.00187883
0.00190964
0.00194071
0.00197204
0.00200363
0.00203548
0.00206757
0.0020999
0.00213246
0.00216524
0.00219823
0.00223141
0.00226479
0.00229833
0.00233203
0.00236587
0.00239985
0.00243394
0.00246813
0.00250241
0.00253677
0.00257119
0.00260567
0.00264018
0.00267473
0.00270931
0.00274391
0.00277852
0.00281315
0.00284777
0.00288241
0.00291704
0.00295167
0.00298629
0.00302089
0.00305547
0.00309001
0.0031245
0.00315892
0.00319327
0.00322753
0.00326176
0.00329601
0.00333033
0.00336474
0.00339923
0.00343379
0.00346842
0.00350308
0.00353776
0.0035724
0.00360696
0.00364137
0.00367556
0.00370943
0.00374288
0.00377578
0.00380799
0.00383936
0.00386973
0.00389892
0.00392675
0.00395298
0.00397856
0.00400082
0.00401963
0.00403716
0.00405262
0.0040652
0.00407486
0.00408152
0.00408514
0.00408566
0.00408312
0.00407753
0.00406898
0.00405756
0.00404339
0.0040266
0.00400736
0.00398582
0.00396211
0.00393633
0.00390849
0.00387849
0.00384644
0.00381269
0.00377764
0.00374161
0.00370489
0.00366771
0.00363025
0.00359267
0.00355512
0.0035177
0.00348052
0.00344367
0.00340723
0.00337126
0.00333583
0.00330097
0.00326673
0.00323315
0.00320025
0.00316804
0.00313657
0.00310584
0.00307586
0.00304662
0.00301812
0.00299034
0.00296327
0.0029369
0.00291119
0.00288614
0.0028617
0.00283779
0.00281433
0.00279113
0.00276781
0.00274344
0.00271387
0.00266309
1.29438e-05
0.000123039
0.000252211
0.000360046
0.000446835
0.000515874
0.000570846
0.000615347
0.000652342
0.000684212
0.000712803
0.000739497
0.000765291
0.000790871
0.000816688
0.000843016
0.000870011
0.000897741
0.00092622
0.000955421
0.000985293
0.00101577
0.00104676
0.00107819
0.00110997
0.00114205
0.00117437
0.00120686
0.00123947
0.00127217
0.0013049
0.00133765
0.00137038
0.00140306
0.00143569
0.00146825
0.00150075
0.00153318
0.00156555
0.00159787
0.00163016
0.00166243
0.00169472
0.00172705
0.00175945
0.00179193
0.00182452
0.00185723
0.0018901
0.00192315
0.00195638
0.00198982
0.00202349
0.0020574
0.00209158
0.00212602
0.00216073
0.00219571
0.00223097
0.00226651
0.00230232
0.00233841
0.00237476
0.00241138
0.00244825
0.00248536
0.0025227
0.00256026
0.00259803
0.00263598
0.0026741
0.00271238
0.00275079
0.00278932
0.00282795
0.00286667
0.00290544
0.00294426
0.00298311
0.00302196
0.00306081
0.00309964
0.00313842
0.00317715
0.00321582
0.00325441
0.00329291
0.00333131
0.0033696
0.00340778
0.00344584
0.00348377
0.00352157
0.00355923
0.00359675
0.00363415
0.00367144
0.00370865
0.0037458
0.0037829
0.00382
0.0038571
0.00389421
0.00393134
0.00396848
0.00400562
0.00404275
0.00407984
0.00411686
0.00415375
0.00419046
0.00422691
0.00426301
0.00429864
0.00433368
0.00436798
0.00440139
0.0044337
0.00446472
0.00449417
0.00452301
0.0045492
0.00457224
0.00459312
0.00461223
0.00462847
0.00464171
0.00465183
0.00465872
0.00466234
0.00466266
0.00465969
0.00465347
0.00464407
0.00463161
0.00461619
0.00459797
0.00457709
0.00455369
0.00452789
0.00449979
0.00446942
0.00443692
0.00440257
0.00436667
0.00432951
0.00429137
0.00425248
0.00421303
0.00417322
0.00413319
0.00409308
0.00405303
0.00401313
0.00397348
0.00393418
0.00389528
0.00385686
0.00381897
0.00378167
0.00374498
0.00370895
0.00367361
0.00363898
0.00360508
0.00357193
0.00353952
0.00350786
0.00347694
0.00344677
0.00341733
0.00338861
0.00336058
0.0033332
0.00330641
0.00328004
0.00325378
0.00322672
0.00319542
0.00314864
1.39235e-05
0.000131068
0.000273449
0.000394781
0.000493556
0.000573601
0.000638341
0.000691497
0.000736158
0.000774823
0.000809463
0.000841587
0.00087231
0.000902431
0.000932496
0.000962861
0.000993738
0.00102524
0.00105741
0.00109024
0.0011237
0.00115772
0.00119225
0.0012272
0.0012625
0.00129809
0.00133391
0.00136989
0.00140599
0.00144215
0.00147833
0.00151451
0.00155065
0.00158672
0.00162273
0.00165865
0.00169448
0.00173023
0.00176591
0.00180153
0.0018371
0.00187265
0.0019082
0.00194378
0.0019794
0.0020151
0.0020509
0.00208681
0.00212288
0.0021591
0.00219552
0.00223214
0.00226899
0.00230608
0.00234343
0.00238104
0.00241893
0.00245709
0.00249554
0.00253427
0.00257328
0.00261257
0.00265214
0.00269197
0.00273206
0.00277239
0.00281296
0.00285375
0.00289474
0.00293591
0.00297725
0.00301873
0.00306034
0.00310205
0.00314383
0.00318568
0.00322756
0.00326944
0.00331131
0.00335314
0.00339491
0.0034366
0.00347817
0.00351963
0.00356093
0.00360207
0.00364303
0.00368379
0.00372434
0.00376466
0.00380476
0.00384462
0.00388425
0.00392363
0.00396278
0.00400172
0.00404045
0.004079
0.0041174
0.00415566
0.00419382
0.00423189
0.0042699
0.00430786
0.00434578
0.00438368
0.00442156
0.00445941
0.00449723
0.00453499
0.00457266
0.00461019
0.0046475
0.00468452
0.00472114
0.00475723
0.00479266
0.00482724
0.00486079
0.00489307
0.00492453
0.00495423
0.00498142
0.00500612
0.00502919
0.00504962
0.00506716
0.00508161
0.00509284
0.00510073
0.00510524
0.00510634
0.00510402
0.00509833
0.00508932
0.0050771
0.00506178
0.00504348
0.00502235
0.00499852
0.00497211
0.00494323
0.00491205
0.00487879
0.00484371
0.00480708
0.00476915
0.00473015
0.00469031
0.00464981
0.00460882
0.00456751
0.00452601
0.00448445
0.00444295
0.0044016
0.0043605
0.00431973
0.00427935
0.00423943
0.00420003
0.00416119
0.00412296
0.00408537
0.00404845
0.00401223
0.00397672
0.00394195
0.00390793
0.00387466
0.00384214
0.00381039
0.0037794
0.00374915
0.00371961
0.00369067
0.00366208
0.00363303
0.00360072
0.00355733
1.47776e-05
0.000136157
0.000288907
0.000421962
0.000531625
0.000621909
0.000695886
0.000757313
0.000809345
0.00085456
0.000895015
0.000932312
0.000967663
0.00100196
0.00103584
0.00106973
0.00110391
0.00113854
0.00117371
0.00120944
0.00124573
0.00128252
0.00131978
0.00135743
0.00139541
0.00143367
0.00147212
0.00151073
0.00154943
0.00158818
0.00162693
0.00166565
0.00170431
0.00174289
0.00178137
0.00181976
0.00185804
0.00189622
0.0019343
0.0019723
0.00201025
0.00204814
0.00208602
0.00212391
0.00216182
0.00219979
0.00223784
0.00227599
0.00231427
0.0023527
0.00239131
0.00243012
0.00246914
0.00250839
0.00254789
0.00258765
0.00262768
0.00266798
0.00270856
0.00274942
0.00279056
0.00283198
0.00287368
0.00291564
0.00295787
0.00300034
0.00304304
0.00308595
0.00312907
0.00317237
0.00321582
0.00325941
0.00330311
0.0033469
0.00339074
0.00343462
0.0034785
0.00352236
0.00356617
0.00360989
0.00365349
0.00369696
0.00374025
0.00378335
0.00382622
0.00386884
0.00391119
0.00395325
0.00399499
0.00403641
0.00407748
0.00411821
0.00415859
0.00419862
0.0042383
0.00427765
0.00431668
0.00435541
0.00439388
0.00443211
0.00447012
0.00450795
0.00454564
0.00458321
0.00462071
0.00465816
0.00469558
0.00473302
0.00477049
0.00480799
0.00484553
0.00488309
0.00492064
0.00495813
0.00499549
0.00503263
0.00506943
0.00510576
0.00514144
0.00517628
0.00521032
0.00524336
0.00527446
0.00530365
0.00533107
0.00535629
0.00537886
0.0053985
0.00541502
0.00542827
0.00543815
0.00544458
0.00544751
0.00544693
0.00544286
0.00543535
0.00542447
0.00541033
0.00539304
0.00537274
0.00534956
0.00532364
0.00529515
0.0052643
0.00523132
0.00519647
0.00515998
0.0051221
0.00508303
0.005043
0.00500218
0.00496074
0.00491885
0.00487666
0.00483428
0.00479185
0.00474946
0.00470721
0.0046652
0.00462348
0.00458214
0.00454124
0.00450082
0.00446095
0.00442166
0.004383
0.00434499
0.00430766
0.00427105
0.00423518
0.00420007
0.00416574
0.00413221
0.0040995
0.0040676
0.00403647
0.00400591
0.00397525
0.00394223
0.00390144
1.54851e-05
0.000139252
0.000299824
0.000442627
0.000561845
0.000661351
0.000743837
0.000812989
0.000871963
0.00092337
0.00096932
0.00101148
0.00105113
0.00108924
0.00112652
0.00116347
0.00120044
0.00123764
0.0012752
0.00131319
0.00135163
0.00139049
0.00142975
0.00146935
0.00150925
0.00154939
0.0015897
0.00163014
0.00167064
0.00171115
0.00175165
0.00179209
0.00183245
0.0018727
0.00191283
0.00195283
0.0019927
0.00203245
0.00207207
0.00211159
0.00215102
0.00219039
0.0022297
0.002269
0.00230831
0.00234764
0.00238704
0.00242651
0.0024661
0.00250583
0.00254571
0.00258578
0.00262604
0.00266653
0.00270725
0.00274822
0.00278945
0.00283095
0.00287272
0.00291478
0.00295712
0.00299974
0.00304264
0.0030858
0.00312923
0.00317291
0.00321683
0.00326097
0.00330531
0.00334983
0.00339451
0.00343933
0.00348425
0.00352926
0.00357432
0.00361939
0.00366446
0.00370947
0.0037544
0.00379922
0.00384389
0.00388836
0.00393262
0.00397661
0.00402032
0.0040637
0.00410672
0.00414936
0.0041916
0.00423341
0.00427477
0.00431567
0.00435611
0.00439607
0.00443556
0.0044746
0.00451319
0.00455136
0.00458913
0.00462655
0.00466363
0.00470044
0.004737
0.00477339
0.00480964
0.00484583
0.004882
0.00491822
0.00495454
0.004991
0.00502766
0.00506453
0.00510163
0.00513895
0.00517647
0.00521414
0.00525187
0.00528958
0.00532713
0.00536435
0.00540112
0.00543741
0.00547247
0.00550629
0.00553874
0.0055693
0.0055976
0.00562321
0.00564591
0.00566549
0.00568178
0.00569466
0.00570402
0.00570979
0.00571191
0.0057104
0.00570528
0.0056966
0.00568447
0.005669
0.00565031
0.00562855
0.00560389
0.00557653
0.0055467
0.00551462
0.00548055
0.00544472
0.00540735
0.00536867
0.00532887
0.00528815
0.00524668
0.00520462
0.00516212
0.00511932
0.00507633
0.00503328
0.00499025
0.00494735
0.00490465
0.00486223
0.00482016
0.00477851
0.00473732
0.00469666
0.00465656
0.00461708
0.00457826
0.00454014
0.00450276
0.00446615
0.00443038
0.00439546
0.00436146
0.00432835
0.004296
0.00426389
0.00423021
0.00419152
1.60585e-05
0.000140785
0.000306916
0.000457491
0.000584961
0.000692358
0.000782523
0.000858713
0.000924064
0.000981183
0.0010322
0.00107882
0.00112238
0.0011639
0.00120416
0.00124372
0.00128299
0.00132222
0.00136161
0.00140125
0.0014412
0.00148146
0.00152204
0.00156289
0.00160398
0.00164526
0.00168668
0.00172818
0.00176972
0.00181123
0.00185268
0.00189405
0.00193529
0.00197639
0.00201733
0.00205811
0.00209873
0.00213919
0.00217949
0.00221966
0.00225971
0.00229966
0.00233953
0.00237936
0.00241917
0.00245898
0.00249884
0.00253876
0.00257877
0.0026189
0.00265917
0.00269961
0.00274025
0.00278109
0.00282217
0.00286349
0.00290507
0.00294692
0.00298905
0.00303147
0.00307418
0.00311718
0.00316047
0.00320405
0.00324791
0.00329203
0.00333641
0.00338103
0.00342587
0.00347092
0.00351614
0.00356151
0.00360701
0.0036526
0.00369825
0.00374393
0.0037896
0.00383521
0.00388074
0.00392613
0.00397136
0.00401636
0.00406111
0.00410556
0.00414966
0.00419338
0.00423668
0.00427952
0.00432187
0.00436369
0.00440497
0.00444568
0.0044858
0.00452533
0.00456426
0.0046026
0.00464037
0.00467757
0.00471424
0.00475041
0.00478613
0.00482146
0.00485644
0.00489116
0.00492568
0.0049601
0.0049945
0.00502897
0.0050636
0.0050985
0.00513374
0.00516939
0.00520553
0.0052422
0.00527942
0.0053172
0.00535552
0.00539431
0.00543348
0.00547291
0.00551247
0.00555198
0.00559114
0.00562968
0.00566751
0.00570399
0.00573856
0.00577095
0.00580059
0.00582733
0.00585096
0.00587127
0.00588809
0.00590127
0.0059107
0.00591632
0.0059181
0.00591604
0.0059102
0.00590067
0.00588755
0.00587098
0.00585114
0.00582821
0.00580241
0.00577397
0.00574313
0.00571014
0.00567523
0.00563863
0.00560056
0.00556123
0.00552082
0.00547952
0.00543749
0.00539489
0.00535185
0.0053085
0.00526496
0.00522134
0.00517774
0.00513423
0.00509091
0.00504785
0.00500513
0.0049628
0.00492094
0.0048796
0.00483884
0.00479871
0.00475929
0.00472062
0.00468277
0.00464583
0.00460984
0.00457486
0.00454081
0.00450726
0.0044728
0.00443526
1.65114e-05
0.000141056
0.000310767
0.000467254
0.000601517
0.000715581
0.000812333
0.000894699
0.000965708
0.00102792
0.00108346
0.00113403
0.00118102
0.00122548
0.00126823
0.00130989
0.00135091
0.00139164
0.00143227
0.00147296
0.00151379
0.00155479
0.00159599
0.00163737
0.00167892
0.00172061
0.00176239
0.00180422
0.00184603
0.00188776
0.00192938
0.00197086
0.00201216
0.00205328
0.00209419
0.00213489
0.00217539
0.00221568
0.00225578
0.00229569
0.00233545
0.00237508
0.00241461
0.00245406
0.00249347
0.00253287
0.00257228
0.00261176
0.00265131
0.00269097
0.00273078
0.00277075
0.00281092
0.0028513
0.00289191
0.00293278
0.00297393
0.00301536
0.0030571
0.00309914
0.00314151
0.00318419
0.0032272
0.00327053
0.00331418
0.00335814
0.00340239
0.00344693
0.00349174
0.00353679
0.00358206
0.00362753
0.00367316
0.00371892
0.00376478
0.0038107
0.00385663
0.00390253
0.00394836
0.00399407
0.00403961
0.00408493
0.00412997
0.0041747
0.00421904
0.00426297
0.00430641
0.00434934
0.0043917
0.00443345
0.00447456
0.004515
0.00455473
0.00459375
0.00463204
0.0046696
0.00470644
0.00474257
0.00477802
0.00481282
0.00484703
0.0048807
0.00491391
0.00494674
0.0049793
0.00501168
0.005044
0.0050764
0.005109
0.00514195
0.00517538
0.00520942
0.00524419
0.0052798
0.00531632
0.00535382
0.00539235
0.0054319
0.00547242
0.00551383
0.005556
0.00559875
0.00564198
0.00568533
0.00572878
0.00577139
0.0058128
0.00585254
0.0058899
0.00592449
0.00595623
0.00598482
0.00601
0.00603155
0.00604927
0.00606302
0.00607272
0.0060783
0.00607977
0.00607717
0.0060706
0.00606016
0.00604602
0.00602836
0.00600739
0.00598335
0.00595648
0.00592703
0.00589525
0.00586138
0.00582565
0.00578828
0.0057495
0.00570948
0.00566843
0.00562652
0.00558389
0.00554069
0.00549706
0.00545311
0.00540897
0.00536473
0.00532049
0.00527634
0.00523237
0.00518865
0.00514527
0.0051023
0.00505981
0.00501787
0.00497657
0.00493599
0.00489621
0.00485733
0.00481944
0.00478262
0.00474686
0.00471183
0.00467642
0.00463931
1.68554e-05
0.00014029
0.000311818
0.000472427
0.000611914
0.000731356
0.00083354
0.000921092
0.000996896
0.00106344
0.00112279
0.00117668
0.00122648
0.00127327
0.00131792
0.00136106
0.00140319
0.00144476
0.00148602
0.0015271
0.00156812
0.00160915
0.00165023
0.00169137
0.00173258
0.00177386
0.00181522
0.00185667
0.001898
0.00193915
0.00198011
0.00202086
0.00206137
0.00210163
0.00214162
0.00218134
0.00222079
0.00225998
0.00229893
0.00233764
0.00237615
0.0024145
0.00245272
0.00249084
0.00252892
0.00256697
0.00260504
0.00264317
0.00268138
0.00271972
0.00275822
0.0027969
0.00283579
0.00287493
0.00291434
0.00295404