/*--------------------------------*- C++ -*----------------------------------*\
| =========                 |                                                 |
| \\      /  F ield         | OpenFOAM: The Open Source CFD Toolbox           |
|  \\    /   O peration     | Version:  2212                                  |
|   \\  /    A nd           | Website:  www.openfoam.com                      |
|    \\/     M anipulation  |                                                 |
\*---------------------------------------------------------------------------*/
FoamFile
{
    version     2.0;
    format      ascii;
    arch        "LSB;label=32;scalar=64";
    class       volScalarField;
    location    "150";
    object      p;
}
// * * * * * * * * * * * * * * * * * * * * * * * * * * * * * * * * * * * * * //

dimensions      [0 2 -2 0 0 0 0];

internalField   nonuniform List<scalar> 
12225
(
-1.45806
-3.61534
-4.70808
-5.02202
-5.19908
-5.37814
-5.52658
-5.63867
-5.73081
-5.81438
-5.89244
-5.96612
-6.03711
-6.10747
-6.17975
-6.25358
-6.34356
-6.40077
-4.58829
-5.37601
-5.58105
-5.49328
-5.46849
-5.53307
-5.61653
-5.69128
-5.76128
-5.83113
-5.90044
-5.96833
-6.03536
-6.10278
-6.17233
-6.24536
-6.32684
-6.432
-4.9683
-4.9023
-5.0219
-5.10915
-5.21777
-5.36056
-5.49574
-5.60662
-5.70113
-5.78736
-5.86781
-5.94336
-6.01558
-6.08627
-6.15749
-6.2305
-6.31013
-6.39492
-4.84098
-4.75359
-5.01296
-5.20528
-5.32802
-5.44957
-5.56353
-5.65833
-5.73997
-5.81574
-5.88796
-5.95708
-6.02411
-6.09032
-6.1571
-6.22515
-6.29564
-6.36306
-4.83254
-4.84713
-5.09427
-5.25948
-5.35267
-5.45142
-5.55402
-5.64487
-5.72541
-5.80104
-5.87356
-5.94313
-6.01041
-6.07637
-6.14193
-6.20727
-6.27191
-6.33193
-4.89357
-4.93867
-5.12532
-5.26551
-5.35592
-5.45233
-5.55322
-5.64404
-5.7248
-5.80017
-5.87207
-5.94076
-6.00684
-6.07109
-6.13409
-6.19568
-6.25497
-6.30896
-4.95615
-4.99844
-5.14261
-5.27313
-5.36745
-5.4615
-5.55786
-5.6459
-5.72493
-5.79868
-5.86897
-5.93612
-6.00054
-6.06277
-6.12312
-6.18121
-6.23603
-6.28514
-5.01163
-5.04887
-5.16651
-5.28753
-5.3813
-5.47071
-5.56153
-5.64635
-5.72354
-5.79574
-5.86451
-5.93018
-5.99299
-6.05327
-6.1111
-6.16604
-6.21713
-6.26255
-5.06336
-5.09724
-5.19494
-5.30395
-5.39427
-5.47914
-5.56492
-5.64653
-5.72177
-5.7923
-5.85943
-5.92345
-5.9845
-6.04273
-6.09809
-6.15013
-6.19809
-6.24063
-5.1124
-5.14304
-5.22455
-5.32132
-5.40709
-5.48781
-5.56888
-5.64702
-5.71996
-5.78855
-5.85382
-5.91601
-5.97515
-6.03127
-6.08425
-6.13369
-6.17901
-6.21928
-5.15855
-5.1857
-5.25423
-5.33973
-5.42028
-5.49684
-5.57333
-5.6478
-5.71815
-5.78459
-5.84783
-5.90804
-5.96517
-6.01918
-6.0699
-6.11701
-6.1601
-6.19853
-5.19801
-5.22207
-5.28111
-5.35733
-5.43261
-5.50525
-5.5777
-5.64874
-5.71654
-5.78086
-5.84212
-5.90042
-5.95567
-6.00776
-6.05653
-6.10171
-6.14305
-6.18007
-5.23425
-5.25567
-5.30689
-5.37487
-5.44484
-5.51354
-5.58215
-5.64982
-5.71497
-5.7771
-5.83633
-5.89269
-5.94607
-5.9963
-6.04325
-6.0867
-6.12651
-6.16233
-5.2719
-5.2907
-5.33465
-5.39448
-5.45852
-5.52274
-5.58716
-5.65107
-5.71316
-5.7727
-5.82958
-5.88372
-5.93498
-5.98319
-6.02821
-6.06989
-6.10817
-6.14284
-5.30945
-5.3257
-5.36314
-5.4153
-5.47312
-5.53242
-5.59239
-5.65227
-5.71093
-5.76754
-5.82177
-5.87345
-5.92241
-5.96847
-6.01151
-6.05144
-6.08824
-6.1218
-5.34455
-5.35848
-5.39039
-5.4357
-5.48741
-5.54166
-5.5971
-5.65286
-5.70789
-5.76134
-5.81275
-5.86183
-5.90841
-5.95228
-5.99338
-6.03161
-6.06701
-6.09953
-5.37385
-5.38583
-5.41332
-5.45297
-5.49926
-5.54877
-5.59994
-5.65178
-5.70328
-5.75361
-5.80221
-5.84875
-5.89301
-5.93483
-5.97409
-6.01078
-6.04491
-6.0765
-5.39232
-5.40291
-5.42731
-5.46294
-5.50518
-5.55096
-5.5987
-5.64734
-5.69589
-5.74355
-5.78974
-5.83409
-5.87637
-5.91643
-5.95416
-5.98955
-6.02261
-6.0534
-5.39223
-5.40218
-5.42523
-5.45913
-5.4996
-5.54363
-5.58962
-5.63654
-5.68346
-5.72958
-5.77432
-5.81732
-5.85835
-5.89729
-5.93405
-5.96864
-6.00106
-6.03142
-5.36765
-5.37811
-5.40234
-5.438
-5.48029
-5.52573
-5.57269
-5.62037
-5.66788
-5.71441
-5.75937
-5.80247
-5.84349
-5.88238
-5.91903
-5.9535
-5.98579
-6.01605
-5.33312
-5.34448
-5.37118
-5.41069
-5.45683
-5.50523
-5.55459
-5.6044
-5.65373
-5.70162
-5.74762
-5.7915
-5.83317
-5.87253
-5.90959
-5.94437
-5.97698
-6.0075
-5.29062
-5.30269
-5.33316
-5.37931
-5.4311
-5.48306
-5.53543
-5.58837
-5.64046
-5.69046
-5.73803
-5.78314
-5.82575
-5.8658
-5.90336
-5.9385
-5.97135
-6.00203
-5.24352
-5.25489
-5.28988
-5.34607
-5.40553
-5.46152
-5.51718
-5.57345
-5.62836
-5.68059
-5.73002
-5.77674
-5.82064
-5.86175
-5.90011
-5.93594
-5.96936
-6.00065
-5.19436
-5.20339
-5.2447
-5.31228
-5.37853
-5.43948
-5.50076
-5.56165
-5.61932
-5.67326
-5.72405
-5.77184
-5.81652
-5.85812
-5.89684
-5.9329
-5.96646
-5.99765
-5.14314
-5.1444
-5.20728
-5.289
-5.3526
-5.41325
-5.48076
-5.54835
-5.61063
-5.66796
-5.72158
-5.77166
-5.81802
-5.86078
-5.9003
-5.93689
-5.9709
-6.00278
-5.09682
-5.04832
-5.16413
-5.28568
-5.34829
-5.40094
-5.46557
-5.53223
-5.59387
-5.65124
-5.7056
-5.75671
-5.80415
-5.848
-5.88855
-5.92615
-5.96101
-5.99325
-5.11388
-4.91584
-5.04907
-5.22719
-5.33249
-5.41311
-5.49257
-5.56482
-5.62777
-5.68481
-5.73788
-5.78697
-5.83198
-5.87323
-5.9112
-5.94632
-5.97907
-6.01051
-5.25475
-5.00726
-4.98377
-5.03895
-5.12182
-5.23027
-5.34145
-5.43901
-5.52359
-5.59976
-5.66912
-5.73159
-5.78742
-5.83744
-5.88246
-5.92312
-5.96025
-5.99512
-4.98273
-5.61341
-5.73205
-5.59203
-5.50423
-5.51141
-5.55341
-5.59807
-5.64338
-5.69126
-5.7399
-5.78686
-5.83083
-5.87174
-5.90961
-5.94435
-5.97629
-6.00679
-1.92827
-3.69532
-4.70855
-4.98995
-5.11628
-5.25882
-5.38853
-5.48895
-5.57089
-5.64375
-5.70958
-5.76829
-5.82044
-5.86695
-5.90852
-5.94535
-5.97758
-6.00364
-6.86225
-6.86209
-6.86299
-6.86502
-6.86757
-6.87026
-6.87306
-6.87603
-6.87918
-6.88257
-6.88626
-6.89034
-6.89486
-6.89988
-6.90543
-6.91159
-6.9184
-6.92594
-6.93424
-6.94337
-6.95334
-6.96422
-6.97599
-6.98871
-7.00236
-7.01698
-7.03253
-7.04903
-7.0664
-7.0846
-7.10351
-7.12311
-7.1433
-7.1641
-7.18539
-7.20718
-7.22938
-7.25199
-7.27492
-7.29817
-7.32166
-7.3454
-7.36929
-7.39334
-7.41747
-7.44169
-7.46588
-7.49007
-7.51414
-7.53811
-7.56185
-7.58537
-7.60853
-7.63133
-7.65363
-7.67541
-7.69652
-7.71693
-7.73647
-7.75512
-7.77268
-7.78911
-7.80421
-7.81794
-7.83006
-7.84053
-7.84912
-7.85575
-7.86017
-7.86229
-7.86184
-7.85872
-7.85264
-7.84351
-7.83103
-7.8151
-7.79542
-7.77183
-7.74399
-7.71169
-7.67457
-7.63238
-7.58473
-7.53134
-7.47176
-7.40566
-7.33258
-7.2522
-7.16413
-7.06809
-6.96377
-6.85075
-6.72858
-6.5967
-6.45448
-6.30121
-6.13614
-5.9585
-5.76761
-5.56295
-5.34404
-5.11039
-4.86146
-4.59672
-4.31571
-4.01802
-3.70337
-3.37159
-3.02261
-2.65653
-2.27361
-1.8743
-1.45924
-1.02929
-0.585527
-0.129242
0.337985
0.814369
1.29792
1.78656
2.27806
2.77011
3.26032
3.74628
4.22556
4.69595
5.15529
5.60169
6.03337
6.44887
6.8469
7.22652
7.58695
7.92778
8.24873
8.54984
8.83127
9.0934
9.3367
9.5618
9.7699
9.96234
10.1397
10.3023
10.4508
10.586
10.7088
10.8202
10.9211
11.0123
11.0947
11.1691
11.2363
11.2969
11.3518
11.4014
11.4464
11.4873
11.5247
11.5589
11.5905
11.6199
11.6473
11.6731
11.6977
11.7212
11.744
11.7662
11.7881
11.8098
11.8315
11.8535
11.8759
11.899
11.9234
11.9498
11.9801
12.0168
12.0737
12.1452
-6.86134
-6.86175
-6.8629
-6.8647
-6.86647
-6.86791
-6.86911
-6.87031
-6.87178
-6.87369
-6.87611
-6.87901
-6.88238
-6.88631
-6.89085
-6.89604
-6.90193
-6.90859
-6.91607
-6.92444
-6.93372
-6.94396
-6.95518
-6.9674
-6.9806
-6.99481
-7.00997
-7.02609
-7.04309
-7.06092
-7.07949
-7.09876
-7.11865
-7.13913
-7.16011
-7.18159
-7.20347
-7.22575
-7.24836
-7.27128
-7.29444
-7.31783
-7.34138
-7.36509
-7.38888
-7.41274
-7.43661
-7.46045
-7.4842
-7.50784
-7.53127
-7.55449
-7.57738
-7.5999
-7.62196
-7.64352
-7.66443
-7.68466
-7.70406
-7.72257
-7.74005
-7.75641
-7.77149
-7.7852
-7.79736
-7.80789
-7.81659
-7.82335
-7.82796
-7.83028
-7.83012
-7.82731
-7.82162
-7.81289
-7.8009
-7.78546
-7.76633
-7.74333
-7.71619
-7.68468
-7.64851
-7.60738
-7.56097
-7.50897
-7.451
-7.38669
-7.31563
-7.23742
-7.15167
-7.05804
-6.95614
-6.84554
-6.72572
-6.59614
-6.45619
-6.30526
-6.14275
-5.96808
-5.78075
-5.58019
-5.3658
-5.13699
-4.8932
-4.6339
-4.35859
-4.06689
-3.75845
-3.4331
-3.09071
-2.73136
-2.35523
-1.96272
-1.55439
-1.13102
-0.693605
-0.243371
0.218224
0.689449
1.16844
1.65314
2.14142
2.63096
3.11945
3.60446
4.08362
4.55466
5.01544
5.46397
5.89847
6.31738
6.71938
7.10342
7.46869
7.81465
8.14101
8.44769
8.7348
9.00267
9.25186
9.48284
9.69595
9.89223
10.073
10.239
10.3909
10.5296
10.6559
10.7707
10.8748
10.9692
11.0547
11.132
11.202
11.2652
11.3225
11.3744
11.4215
11.4643
11.5034
11.5393
11.5723
11.6029
11.6315
11.6583
11.6837
11.7079
11.7312
11.7538
11.776
11.798
11.8199
11.8419
11.8644
11.8876
11.9121
11.9387
11.9696
12.0062
12.0626
12.1254
-6.85418
-6.8561
-6.85882
-6.86115
-6.86251
-6.86306
-6.86317
-6.86319
-6.86342
-6.86406
-6.86522
-6.867
-6.86944
-6.87259
-6.87647
-6.88111
-6.88655
-6.89284
-6.90001
-6.90811
-6.91715
-6.92717
-6.93816
-6.95013
-6.96307
-6.97695
-6.99173
-7.0074
-7.02389
-7.04117
-7.05915
-7.07782
-7.09709
-7.11693
-7.13728
-7.1581
-7.17935
-7.20098
-7.22295
-7.24523
-7.26776
-7.29053
-7.31348
-7.33659
-7.35981
-7.3831
-7.40641
-7.42972
-7.45296
-7.47609
-7.49906
-7.52181
-7.54426
-7.56637
-7.58805
-7.60923
-7.62982
-7.64973
-7.66885
-7.68711
-7.70437
-7.72054
-7.73547
-7.74907
-7.76117
-7.77165
-7.78037
-7.78717
-7.79188
-7.79436
-7.79441
-7.79188
-7.78654
-7.77823
-7.76674
-7.75185
-7.73334
-7.71099
-7.68458
-7.65386
-7.61858
-7.57847
-7.53323
-7.48256
-7.42611
-7.36355
-7.29448
-7.21851
-7.13527
-7.04435
-6.94538
-6.83788
-6.72132
-6.59514
-6.45877
-6.31162
-6.15314
-5.98282
-5.80016
-5.60461
-5.39559
-5.1725
-4.93477
-4.68186
-4.41327
-4.12859
-3.82749
-3.50973
-3.17517
-2.82384
-2.45587
-2.0716
-1.6715
-1.2563
-0.82687
-0.384386
0.0698098
0.534091
1.0067
1.48568
1.96896
2.45428
2.93936
3.42182
3.89937
4.36968
4.83066
5.28022
5.7166
6.13814
6.5435
6.93152
7.30136
7.65238
7.98423
8.29674
8.58999
8.86413
9.11952
9.35677
9.57662
9.78
9.96782
10.1407
10.2993
10.4444
10.5768
10.6974
10.807
10.9066
10.9969
11.0787
11.1528
11.2199
11.2807
11.3358
11.3858
11.4313
11.4728
11.5107
11.5456
11.5779
11.6078
11.6358
11.6622
11.6873
11.7113
11.7344
11.757
11.7792
11.8012
11.8233
11.8458
11.8689
11.8935
11.9201
11.9512
11.9868
12.0415
12.0882
-6.84102
-6.84482
-6.8502
-6.85429
-6.85664
-6.85783
-6.85837
-6.85862
-6.85887
-6.85937
-6.86029
-6.86177
-6.86389
-6.86672
-6.8703
-6.87469
-6.87991
-6.886
-6.89299
-6.90091
-6.90977
-6.9196
-6.93037
-6.94208
-6.95472
-6.96825
-6.98265
-6.99789
-7.01391
-7.03069
-7.04815
-7.06627
-7.08498
-7.10425
-7.12402
-7.14426
-7.16491
-7.18596
-7.20735
-7.22905
-7.25102
-7.27324
-7.29565
-7.31823
-7.34094
-7.36375
-7.3866
-7.40947
-7.43229
-7.45502
-7.47761
-7.50001
-7.52214
-7.54395
-7.56535
-7.58628
-7.60664
-7.62636
-7.64532
-7.66344
-7.6806
-7.69669
-7.71159
-7.72517
-7.73731
-7.74786
-7.75668
-7.76363
-7.76854
-7.77125
-7.7716
-7.7694
-7.76448
-7.75665
-7.7457
-7.73143
-7.71362
-7.69204
-7.66646
-7.63664
-7.60232
-7.56324
-7.51912
-7.46967
-7.41457
-7.35348
-7.28605
-7.2119
-7.13064
-7.0419
-6.94527
-6.84028
-6.7264
-6.60309
-6.46979
-6.32593
-6.17099
-6.00444
-5.82577
-5.63444
-5.42986
-5.21144
-4.97861
-4.73083
-4.4676
-4.18849
-3.89316
-3.58134
-3.25288
-2.90776
-2.54608
-2.16812
-1.77432
-1.36532
-0.941972
-0.505351
-0.0567548
0.402296
0.870106
1.3448
1.82435
2.30655
2.78913
3.26974
3.74612
4.21597
4.67715
5.12758
5.56545
5.98905
6.39702
6.78816
7.16156
7.51654
7.85273
8.16991
8.46811
8.74747
9.00839
9.25138
9.47717
9.68653
9.88019
10.0587
10.2228
10.3732
10.5107
10.6361
10.7503
10.8542
10.9486
11.0342
11.1119
11.1822
11.2461
11.3039
11.3565
11.4042
11.4478
11.4876
11.5241
11.5577
11.5889
11.6179
11.6451
11.6709
11.6954
11.7189
11.7417
11.764
11.786
11.808
11.8304
11.8533
11.8776
11.9037
11.9339
11.9669
12.0164
12.0457
-6.82518
-6.83086
-6.83943
-6.84594
-6.84991
-6.85235
-6.85389
-6.85493
-6.85578
-6.85673
-6.85798
-6.8597
-6.86201
-6.86499
-6.86871
-6.87322
-6.87855
-6.88474
-6.89181
-6.89979
-6.90867
-6.91847
-6.92918
-6.94079
-6.95327
-6.96661
-6.98076
-6.9957
-7.01138
-7.02778
-7.04483
-7.06252
-7.08077
-7.09956
-7.11885
-7.1386
-7.15877
-7.17933
-7.20024
-7.22147
-7.24298
-7.26475
-7.28673
-7.30891
-7.33122
-7.35365
-7.37614
-7.39867
-7.42117
-7.44361
-7.46593
-7.48807
-7.50997
-7.53157
-7.55278
-7.57355
-7.59376
-7.61336
-7.63222
-7.65027
-7.66738
-7.68345
-7.69835
-7.71197
-7.72417
-7.73482
-7.74376
-7.75087
-7.75598
-7.75893
-7.75955
-7.75768
-7.75314
-7.74574
-7.73528
-7.72157
-7.70439
-7.68353
-7.65874
-7.62979
-7.59642
-7.55839
-7.51539
-7.46716
-7.41338
-7.35372
-7.28784
-7.21537
-7.13594
-7.04917
-6.95466
-6.85194
-6.74049
-6.61979
-6.48929
-6.34843
-6.19667
-6.03348
-5.85831
-5.6706
-5.46977
-5.25522
-5.02637
-4.78268
-4.52364
-4.2488
-3.95779
-3.65033
-3.32625
-2.98546
-2.62806
-2.25425
-1.86448
-1.45931
-1.03958
-0.606287
-0.160728
0.295669
0.761197
1.23407
1.71221
2.19351
2.67559
3.15621
3.63299
4.10373
4.56614
5.01823
5.45804
5.88397
6.29449
6.68848
7.06497
7.42334
7.76311
8.08407
8.38615
8.66953
8.93451
9.1816
9.4114
9.62466
9.822
10.0041
10.1716
10.3253
10.466
10.5945
10.7116
10.8183
10.9152
11.0033
11.0831
11.1556
11.2213
11.281
11.3351
11.3843
11.4291
11.47
11.5075
11.542
11.5738
11.6035
11.6311
11.6572
11.6819
11.7056
11.7285
11.7507
11.7726
11.7944
11.8164
11.839
11.8627
11.8879
11.9164
11.946
11.9896
12.0034
-6.81033
-6.81754
-6.82898
-6.83788
-6.8436
-6.84748
-6.85026
-6.85235
-6.85408
-6.85577
-6.85765
-6.85992
-6.86269
-6.86609
-6.87017
-6.87501
-6.88064
-6.88709
-6.89439
-6.90255
-6.91157
-6.92145
-6.93219
-6.94378
-6.95618
-6.96939
-6.98336
-6.99808
-7.0135
-7.02959
-7.04631
-7.06364
-7.08152
-7.09993
-7.11883
-7.13819
-7.15797
-7.17814
-7.19867
-7.21953
-7.24069
-7.26211
-7.28376
-7.30561
-7.32763
-7.34977
-7.372
-7.39428
-7.41656
-7.43879
-7.46092
-7.4829
-7.50465
-7.52611
-7.54722
-7.56789
-7.58803
-7.60757
-7.62641
-7.64444
-7.66156
-7.67765
-7.69261
-7.7063
-7.7186
-7.72937
-7.73847
-7.74576
-7.75108
-7.75428
-7.75519
-7.75364
-7.74947
-7.74248
-7.7325
-7.71931
-7.70272
-7.68252
-7.65847
-7.63035
-7.5979
-7.56087
-7.51898
-7.47195
-7.41948
-7.36125
-7.29691
-7.2261
-7.14846
-7.06362
-6.97116
-6.87063
-6.76152
-6.64331
-6.51547
-6.37745
-6.22868
-6.06861
-5.89668
-5.7123
-5.51487
-5.30379
-5.07846
-4.83832
-4.58284
-4.31157
-4.02409
-3.7201
-3.39937
-3.0618
-2.70743
-2.33645
-1.94922
-1.54631
-1.1285
-0.696795
-0.252408
0.20321
0.668398
1.14132
1.61994
2.10207
2.58539
3.06756
3.54622
4.01906
4.48382
4.93841
5.38089
5.80961
6.22307
6.62013
6.99979
7.36137
7.70436
8.0285
8.33372
8.62018
8.88816
9.13812
9.37062
9.58637
9.78601
9.97025
10.1398
10.2954
10.438
10.5682
10.687
10.7952
10.8936
10.983
11.0641
11.1377
11.2045
11.265
11.3199
11.3698
11.4152
11.4566
11.4945
11.5293
11.5614
11.5912
11.619
11.6451
11.6698
11.6933
11.716
11.738
11.7597
11.7811
11.8027
11.8247
11.8475
11.8715
11.898
11.924
11.9623
11.9626
-6.79892
-6.80726
-6.82071
-6.83154
-6.83887
-6.84414
-6.84816
-6.85134
-6.85405
-6.8566
-6.85924
-6.86217
-6.86554
-6.86946
-6.87402
-6.87927
-6.88527
-6.89204
-6.8996
-6.90799
-6.91717
-6.92718
-6.93799
-6.9496
-6.96198
-6.97512
-6.98897
-7.00354
-7.01877
-7.03466
-7.05114
-7.06821
-7.08582
-7.10396
-7.12256
-7.14163
-7.16112
-7.181
-7.20125
-7.22184
-7.24272
-7.2639
-7.2853
-7.30694
-7.32874
-7.3507
-7.37275
-7.39488
-7.41701
-7.43913
-7.46115
-7.48304
-7.50472
-7.52614
-7.5472
-7.56785
-7.58799
-7.60755
-7.6264
-7.64448
-7.66165
-7.67782
-7.69287
-7.70667
-7.7191
-7.73002
-7.73929
-7.74677
-7.75232
-7.75577
-7.75696
-7.75574
-7.75192
-7.74534
-7.7358
-7.72312
-7.7071
-7.68752
-7.66416
-7.63681
-7.60522
-7.56914
-7.5283
-7.48242
-7.43121
-7.37435
-7.3115
-7.2423
-7.16641
-7.08342
-6.99296
-6.89454
-6.78768
-6.67185
-6.54654
-6.41117
-6.26521
-6.10805
-5.93913
-5.75782
-5.56352
-5.35558
-5.13342
-4.89644
-4.64409
-4.37589
-4.09138
-3.79024
-3.47217
-3.13707
-2.78489
-2.41582
-2.03015
-1.62845
-1.21142
-0.780089
-0.335606
0.120535
0.586719
1.061
1.54139
2.02558
2.51134
2.99615
3.4777
3.95352
4.42144
4.87921
5.325
5.757
6.1738
6.57409
6.95692
7.32151
7.66738
7.99423
8.30202
8.59086
8.86108
9.11307
9.34742
9.56478
9.76587
9.95138
10.1221
10.2788
10.4223
10.5535
10.6731
10.7821
10.8811
10.9711
11.0528
11.1268
11.1939
11.2548
11.3099
11.36
11.4055
11.447
11.4849
11.5196
11.5516
11.5812
11.6088
11.6346
11.659
11.6822
11.7046
11.7262
11.7474
11.7683
11.7893
11.8105
11.8323
11.8549
11.8792
11.9016
11.9353
11.9241
-6.79224
-6.80118
-6.81567
-6.82777
-6.83635
-6.84279
-6.84788
-6.85205
-6.85567
-6.85905
-6.86244
-6.86605
-6.87003
-6.87449
-6.87953
-6.88521
-6.89158
-6.89868
-6.90652
-6.91513
-6.9245
-6.93465
-6.94555
-6.95721
-6.9696
-6.98271
-6.99651
-7.01098
-7.0261
-7.04184
-7.05817
-7.07506
-7.09249
-7.11043
-7.12884
-7.14771
-7.167
-7.18669
-7.20675
-7.22716
-7.24788
-7.2689
-7.29017
-7.31168
-7.33337
-7.35524
-7.37721
-7.39927
-7.42137
-7.44345
-7.46545
-7.48734
-7.50903
-7.53047
-7.55157
-7.57227
-7.59246
-7.61208
-7.63102
-7.64918
-7.66645
-7.68273
-7.69789
-7.71183
-7.7244
-7.73548
-7.74493
-7.75261
-7.75837
-7.76207
-7.76353
-7.76261
-7.75914
-7.75294
-7.74382
-7.73162
-7.71612
-7.69713
-7.67443
-7.64781
-7.61703
-7.58185
-7.542
-7.49721
-7.4472
-7.39165
-7.33023
-7.26259
-7.18837
-7.10719
-7.01864
-6.92226
-6.81755
-6.70401
-6.58109
-6.44825
-6.30491
-6.15047
-5.98433
-5.80586
-5.61441
-5.40934
-5.19002
-4.95585
-4.70624
-4.44067
-4.15867
-3.85983
-3.54387
-3.21058
-2.85993
-2.49201
-2.10713
-1.70577
-1.28866
-0.85674
-0.411212
0.0464712
0.514619
0.991288
1.47437
1.96158
2.45059
2.93892
3.42411
3.90369
4.37539
4.83698
5.2865
5.72213
6.14237
6.54591
6.93174
7.29909
7.64747
7.97658
8.28641
8.57705
8.84885
9.10221
9.33773
9.55604
9.75788
9.94401
10.1152
10.2723
10.4162
10.5476
10.6674
10.7765
10.8757
10.9657
11.0474
11.1214
11.1884
11.2491
11.3041
11.3539
11.3992
11.4404
11.4779
11.5123
11.5439
11.5732
11.6003
11.6257
11.6497
11.6725
11.6943
11.7154
11.736
11.7563
11.7766
11.7969
11.8176
11.8385
11.8606
11.8796
11.9091
11.8881
-6.79049
-6.79953
-6.81422
-6.82691
-6.83628
-6.84354
-6.84945
-6.85442
-6.85879
-6.86288
-6.86694
-6.87115
-6.87568
-6.88064
-6.88612
-6.89219
-6.8989
-6.9063
-6.91439
-6.92322
-6.93276
-6.94304
-6.95404
-6.96577
-6.97819
-6.99131
-7.00509
-7.01953
-7.03459
-7.05025
-7.06649
-7.08328
-7.1006
-7.11843
-7.13673
-7.15549
-7.17467
-7.19427
-7.21424
-7.23457
-7.25522
-7.27618
-7.29741
-7.31888
-7.34056
-7.36242
-7.38441
-7.4065
-7.42863
-7.45076
-7.47283
-7.49478
-7.51655
-7.53808
-7.55927
-7.58006
-7.60037
-7.62009
-7.63914
-7.65742
-7.67481
-7.69122
-7.70651
-7.72059
-7.7333
-7.74454
-7.75415
-7.76202
-7.76798
-7.77189
-7.7736
-7.77295
-7.76978
-7.76392
-7.75519
-7.74341
-7.7284
-7.70995
-7.68787
-7.66193
-7.63191
-7.59757
-7.55866
-7.51491
-7.46604
-7.41175
-7.3517
-7.28555
-7.21295
-7.13351
-7.04682
-6.95241
-6.84977
-6.73842
-6.6178
-6.48736
-6.3465
-6.19462
-6.03108
-5.85525
-5.66643
-5.46397
-5.24722
-5.01554
-4.76833
-4.50502
-4.2251
-3.92812
-3.61376
-3.28174
-2.93202
-2.56462
-2.17984
-1.77811
-1.36016
-0.926883
-0.479522
-0.019487
0.451416
0.931286
1.41785
1.90891
2.40194
2.89451
3.38401
3.868
4.34399
4.8098
5.26329
5.7027
6.12637
6.53306
6.92166
7.29148
7.64197
7.97291
8.28424
8.57615
8.84892
9.10305
9.33908
9.55773
9.75971
9.94586
10.117
10.2739
10.4175
10.5486
10.6681
10.7768
10.8756
10.9652
11.0464
11.12
11.1865
11.2467
11.3012
11.3505
11.3952
11.4359
11.4729
11.5067
11.5378
11.5664
11.593
11.6179
11.6413
11.6635
11.6847
11.7052
11.7252
11.7448
11.7643
11.7836
11.8031
11.8224
11.8422
11.8579
11.8837
11.8544
-6.79326
-6.80198
-6.8162
-6.82887
-6.83855
-6.84626
-6.85269
-6.85821
-6.86314
-6.86778
-6.87235
-6.87706
-6.88204
-6.88741
-6.89325
-6.89966
-6.90666
-6.91431
-6.92262
-6.93162
-6.94132
-6.95173
-6.96283
-6.97463
-6.9871
-7.00026
-7.01405
-7.02849
-7.04354
-7.05918
-7.07539
-7.09215
-7.10943
-7.12723
-7.1455
-7.16423
-7.1834
-7.20298
-7.22295
-7.24329
-7.26396
-7.28495
-7.30622
-7.32776
-7.3495
-7.37145
-7.39353
-7.41572
-7.43796
-7.46021
-7.4824
-7.50449
-7.52639
-7.54805
-7.56938
-7.59031
-7.61075
-7.63061
-7.64978
-7.66819
-7.68571
-7.70223
-7.71765
-7.73185
-7.74469
-7.75605
-7.7658
-7.7738
-7.77992
-7.784
-7.7859
-7.78547
-7.78254
-7.77696
-7.76855
-7.75714
-7.74254
-7.72457
-7.70303
-7.67771
-7.64838
-7.61482
-7.57679
-7.53401
-7.48623
-7.43313
-7.37439
-7.30967
-7.23863
-7.16086
-7.07596
-6.98344
-6.88282
-6.77358
-6.65517
-6.52702
-6.38853
-6.23907
-6.07799
-5.9046
-5.71822
-5.51817
-5.30375
-5.07431
-4.82921
-4.56783
-4.28962
-3.99411
-3.68089
-3.34969
-3.00037
-2.63297
-2.24771
-1.84504
-1.42561
-0.990358
-0.540474
-0.0774445
0.396932
0.880638
1.37144
1.86699
2.36476
2.86217
3.35657
3.84538
4.32605
4.7963
5.25394
5.69711
6.12417
6.53381
6.92496
7.2969
7.64911
7.98141
8.29376
8.58638
8.85958
9.11388
9.34986
9.56827
9.76985
9.95546
10.1259
10.2821
10.425
10.5553
10.674
10.7819
10.8799
10.9687
11.0491
11.1218
11.1875
11.2469
11.3006
11.3491
11.3931
11.433
11.4692
11.5023
11.5327
11.5606
11.5865
11.6107
11.6335
11.6551
11.6757
11.6956
11.7148
11.7337
11.7523
11.7707
11.7889
11.8065
11.824
11.8367
11.8592
11.8227
-6.79979
-6.80788
-6.82113
-6.83325
-6.84281
-6.85061
-6.85724
-6.86305
-6.86832
-6.87333
-6.87827
-6.88333
-6.88864
-6.89432
-6.90045
-6.90711
-6.91434
-6.92219
-6.93068
-6.93984
-6.94966
-6.96018
-6.97137
-6.98325
-6.99579
-7.009
-7.02284
-7.03732
-7.0524
-7.06807
-7.0843
-7.10109
-7.1184
-7.13624
-7.15455
-7.17333
-7.19255
-7.21221
-7.23225
-7.25268
-7.27345
-7.29455
-7.31594
-7.33761
-7.3595
-7.3816
-7.40384
-7.4262
-7.44861
-7.47103
-7.49339
-7.51565
-7.53772
-7.55954
-7.58103
-7.6021
-7.62268
-7.64266
-7.66196
-7.68047
-7.69809
-7.71471
-7.73021
-7.74448
-7.75739
-7.76882
-7.77864
-7.78672
-7.79292
-7.7971
-7.79911
-7.79881
-7.79604
-7.79065
-7.78248
-7.77134
-7.75708
-7.7395
-7.71841
-7.69361
-7.6649
-7.63204
-7.5948
-7.55293
-7.50615
-7.45417
-7.39667
-7.33332
-7.26375
-7.18759
-7.1044
-7.01371
-6.91503
-6.8078
-6.69152
-6.56555
-6.42932
-6.28214
-6.12336
-5.95226
-5.76815
-5.57029
-5.35799
-5.13054
-4.88727
-4.62753
-4.35072
-4.05632
-3.74388
-3.4131
-3.06378
-2.69595
-2.30976
-1.90567
-1.48429
-1.04659
-0.593688
-0.127169
0.351235
0.839344
1.33498
1.83559
2.33868
2.84143
3.34117
3.83508
4.32069
4.79546
5.25729
5.70415
6.13445
6.5468
6.9402
7.31386
7.6674
8.00058
8.31347
8.60625
8.87935
9.13326
9.36867
9.58628
9.78695
9.97149
10.1408
10.2959
10.4375
10.5666
10.6841
10.7908
10.8876
10.9752
11.0545
11.1261
11.1907
11.249
11.3017
11.3492
11.3922
11.4311
11.4665
11.4987
11.5282
11.5554
11.5805
11.604
11.626
11.6469
11.6669
11.6861
11.7047
11.7228
11.7405
11.7578
11.7747
11.7907
11.8061
11.8159
11.8353
11.7929
-6.80918
-6.81642
-6.82832
-6.83949
-6.84855
-6.85611
-6.86267
-6.86853
-6.87392
-6.8791
-6.88425
-6.88952
-6.89505
-6.90094
-6.90727
-6.91411
-6.92151
-6.92951
-6.93813
-6.94741
-6.95735
-6.96796
-6.97924
-6.99119
-7.0038
-7.01708
-7.03099
-7.04554
-7.06068
-7.07643
-7.09274
-7.10961
-7.12701
-7.14494
-7.16336
-7.18226
-7.20161
-7.2214
-7.24158
-7.26216
-7.2831
-7.30437
-7.32595
-7.34781
-7.3699
-7.39219
-7.41464
-7.4372
-7.45981
-7.48244
-7.50499
-7.52743
-7.54967
-7.57164
-7.59327
-7.61447
-7.63515
-7.65523
-7.6746
-7.69317
-7.71082
-7.72746
-7.74297
-7.75724
-7.77013
-7.78154
-7.79134
-7.79939
-7.80557
-7.80973
-7.81175
-7.81147
-7.80875
-7.80344
-7.79538
-7.78442
-7.77037
-7.75307
-7.73234
-7.70797
-7.67977
-7.64751
-7.61097
-7.56991
-7.52404
-7.4731
-7.41675
-7.35468
-7.28651
-7.21186
-7.1303
-7.04135
-6.9445
-6.83921
-6.72492
-6.60104
-6.46691
-6.32188
-6.16524
-5.99628
-5.81424
-5.6184
-5.40802
-5.18235
-4.94069
-4.68235
-4.40669
-4.11316
-3.80127
-3.47066
-3.1211
-2.75254
-2.36515
-1.9593
-1.53564
-1.09506
-0.638753
-0.168252
0.314617
0.807699
1.30865
1.81488
2.3237
2.8322
3.33753
3.8368
4.32738
4.80672
5.27261
5.72301
6.15629
6.57105
6.9663
7.3413
7.69568
8.02926
8.34215
8.63459
8.90703
9.16004
9.39432
9.61065
9.8099
9.99293
10.1607
10.3141
10.4542
10.5817
10.6976
10.8027
10.898
10.9842
11.0621
11.1323
11.1956
11.2527
11.3041
11.3505
11.3923
11.4302
11.4645
11.4958
11.5243
11.5506
11.575
11.5976
11.6189
11.6391
11.6583
11.6768
11.6947
11.7121
11.7289
11.7452
11.7608
11.7752
11.7885
11.7957
11.8122
11.7651
-6.82049
-6.82674
-6.83704
-6.84696
-6.85522
-6.86228
-6.86851
-6.87419
-6.87951
-6.88468
-6.88988
-6.89523
-6.90086
-6.90686
-6.91331
-6.92026
-6.92777
-6.93587
-6.94459
-6.95396
-6.96398
-6.97468
-6.98604
-6.99807
-7.01076
-7.02412
-7.03812
-7.05275
-7.068
-7.08385
-7.10028
-7.11728
-7.13482
-7.1529
-7.17147
-7.19054
-7.21007
-7.23004
-7.25042
-7.2712
-7.29233
-7.31382
-7.33562
-7.3577
-7.38001
-7.40253
-7.42519
-7.44796
-7.47077
-7.49357
-7.5163
-7.53888
-7.56125
-7.58333
-7.60504
-7.6263
-7.64701
-7.66709
-7.68644
-7.70496
-7.72255
-7.7391
-7.75449
-7.76863
-7.78138
-7.79264
-7.80227
-7.81016
-7.81618
-7.8202
-7.82207
-7.82168
-7.81887
-7.81351
-7.80544
-7.79451
-7.78056
-7.76342
-7.74291
-7.71885
-7.69105
-7.65929
-7.62335
-7.58299
-7.53794
-7.48793
-7.43264
-7.37175
-7.30488
-7.23166
-7.15164
-7.06434
-6.96923
-6.86578
-6.75341
-6.63151
-6.4994
-6.35642
-6.20183
-6.0349
-5.85485
-5.66092
-5.45234
-5.22835
-4.98818
-4.73112
-4.45649
-4.16367
-3.85216
-3.52151
-3.17148
-2.80195
-2.41305
-2.00511
-1.57878
-1.13491
-0.674778
-0.199842
0.287926
0.786433
1.29309
1.80534
2.32018
2.8347
3.34574
3.85045
4.34594
4.82974
5.29943
5.75309
6.18896
6.60573
7.00235
7.37821
7.73289
8.06635
8.37868
8.67023
8.94146
9.19304
9.42568
9.64025
9.8376
10.0187
10.1845
10.3359
10.474
10.5996
10.7136
10.817
10.9105
10.995
11.0712
11.1398
11.2017
11.2573
11.3073
11.3524
11.393
11.4297
11.4629
11.4931
11.5207
11.5461
11.5695
11.5914
11.612
11.6314
11.6499
11.6677
11.6849
11.7015
11.7175
11.7328
11.7471
11.7599
11.7713
11.7761
11.7899
11.7389
-6.83282
-6.838
-6.84659
-6.85505
-6.8623
-6.86862
-6.87433
-6.87962
-6.88468
-6.88969
-6.89479
-6.9001
-6.90571
-6.91173
-6.9182
-6.9252
-6.93276
-6.94093
-6.94971
-6.95915
-6.96925
-6.98002
-6.99145
-7.00356
-7.01634
-7.02978
-7.04386
-7.0586
-7.07395
-7.08993
-7.1065
-7.12366
-7.14137
-7.15963
-7.17839
-7.19766
-7.21739
-7.23758
-7.25817
-7.27916
-7.30052
-7.32222
-7.34422
-7.36651
-7.38902
-7.41173
-7.43456
-7.45749
-7.48044
-7.50336
-7.52617
-7.54882
-7.57121
-7.59329
-7.61496
-7.63614
-7.65675
-7.67669
-7.69587
-7.7142
-7.73156
-7.74785
-7.76297
-7.77681
-7.78925
-7.80019
-7.80949
-7.81705
-7.82274
-7.82644
-7.82802
-7.82736
-7.82431
-7.81874
-7.81052
-7.79948
-7.78549
-7.76838
-7.74799
-7.72413
-7.69662
-7.66526
-7.62982
-7.59008
-7.54577
-7.49663
-7.44233
-7.38256
-7.31696
-7.24511
-7.1666
-7.08091
-6.98753
-6.88588
-6.77539
-6.65542
-6.52531
-6.38433
-6.23174
-6.06679
-5.88867
-5.69659
-5.48975
-5.26733
-5.02855
-4.77263
-4.49885
-4.20655
-3.89516
-3.56422
-3.21343
-2.84262
-2.45187
-2.04152
-1.61215
-1.16468
-0.70034
-0.220671
0.272397
0.776597
1.28931
1.80774
2.32879
2.84931
3.36609
3.8761
4.37638
4.8643
5.33747
5.7939
6.23187
6.65009
7.04755
7.42365
7.77807
8.11079
8.42199
8.71207
8.98156
9.23118
9.4617
9.67403
9.86907
10.0478
10.2113
10.3604
10.4962
10.6195
10.7314
10.8327
10.9243
11.0069
11.0813
11.1483
11.2085
11.2625
11.3111
11.3548
11.3941
11.4295
11.4616
11.4907
11.5173
11.5417
11.5643
11.5854
11.6052
11.6239
11.6418
11.6589
11.6754
11.6912
11.7064
11.7207
11.7338
11.7452
11.7547
11.7574
11.7686
11.7146
-6.84538
-6.84947
-6.85631
-6.86322
-6.8693
-6.87472
-6.87971
-6.88445
-6.88909
-6.89378
-6.89864
-6.90377
-6.90926
-6.9152
-6.92163
-6.92861
-6.93617
-6.94435
-6.95317
-6.96265
-6.97279
-6.98361
-6.99511
-7.00729
-7.02013
-7.03366
-7.04783
-7.06267
-7.07815
-7.09426
-7.11098
-7.12829
-7.14616
-7.16459
-7.18354
-7.20299
-7.22292
-7.2433
-7.26408
-7.28525
-7.30678
-7.32863
-7.35078
-7.37319
-7.3958
-7.41859
-7.44149
-7.46445
-7.4874
-7.51029
-7.53303
-7.55557
-7.57782
-7.59971
-7.62115
-7.64207
-7.66238
-7.68199
-7.7008
-7.71872
-7.73564
-7.75148
-7.76612
-7.77946
-7.7914
-7.80181
-7.8106
-7.81764
-7.82283
-7.82604
-7.82716
-7.82606
-7.82262
-7.81671
-7.80819
-7.79693
-7.78279
-7.76561
-7.74523
-7.72148
-7.69418
-7.66314
-7.62815
-7.58898
-7.54537
-7.49705
-7.44373
-7.38506
-7.3207
-7.25023
-7.17321
-7.08911
-6.99742
-6.89754
-6.7889
-6.67081
-6.54262
-6.40357
-6.25292
-6.08985
-5.91356
-5.72322
-5.51798
-5.297
-5.05944
-4.80449
-4.53138
-4.23939
-3.9279
-3.59644
-3.24462
-2.87227
-2.47942
-2.06643
-1.63383
-1.18257
-0.713793
-0.229201
0.269358
0.779366
1.29821
1.82275
2.34988
2.87617
3.39844
3.91339
4.41808
4.90966
5.38578
5.84433
6.28376
6.70274
7.10038
7.47606
7.82959
8.16095
8.47045
8.75848
9.02573
9.27289
9.50086
9.71053
9.90291
10.079
10.2398
10.3863
10.5196
10.6405
10.7501
10.8492
10.9387
11.0193
11.0918
11.1569
11.2154
11.2679
11.3149
11.3572
11.3951
11.4293
11.4602
11.4882
11.5138
11.5373
11.5591
11.5794
11.5984
11.6165
11.6338
11.6503
11.6661
11.6813
11.6956
11.709
11.721
11.731
11.7388
11.7395
11.7482
11.6921
-6.85799
-6.86104
-6.86618
-6.87148
-6.87625
-6.88059
-6.88468
-6.88867
-6.89269
-6.89688
-6.90133
-6.90614
-6.91139
-6.91713
-6.92342
-6.93029
-6.93778
-6.94592
-6.9547
-6.96416
-6.9743
-6.98512
-6.99663
-7.00883
-7.02171
-7.03527
-7.0495
-7.0644
-7.07993
-7.09612
-7.11291
-7.1303
-7.14826
-7.16678
-7.18581
-7.20536
-7.22536
-7.24582
-7.26666
-7.2879
-7.30946
-7.33135
-7.35348
-7.37585
-7.39839
-7.42107
-7.44381
-7.46658
-7.48929
-7.5119
-7.53432
-7.5565
-7.57834
-7.59978
-7.62074
-7.64114
-7.66088
-7.67989
-7.69807
-7.71534
-7.73159
-7.74673
-7.76066
-7.77328
-7.78449
-7.79419
-7.80226
-7.8086
-7.81311
-7.81567
-7.81617
-7.81451
-7.81054
-7.80418
-7.79527
-7.78369
-7.76932
-7.75199
-7.73157
-7.70787
-7.68076
-7.65
-7.61544
-7.5768
-7.53388
-7.48639
-7.43404
-7.3765
-7.31338
-7.24428
-7.16872
-7.0862
-6.99615
-6.89801
-6.79114
-6.67488
-6.54852
-6.41133
-6.26249
-6.1012
-5.92662
-5.73789
-5.53412
-5.31443
-5.07795
-4.82384
-4.55126
-4.25943
-3.9477
-3.61554
-3.26253
-2.88845
-2.49335
-2.07758
-1.64167
-1.1865
-0.713291
-0.223704
0.280236
0.79598
1.32064
1.851
2.38372
2.91536
3.44255
3.96193
4.47039
4.96503
5.4434
5.90343
6.34353
6.7625