/*--------------------------------*- C++ -*----------------------------------*\
| =========                 |                                                 |
| \\      /  F ield         | OpenFOAM: The Open Source CFD Toolbox           |
|  \\    /   O peration     | Version:  2212                                  |
|   \\  /    A nd           | Website:  www.openfoam.com                      |
|    \\/     M anipulation  |                                                 |
\*---------------------------------------------------------------------------*/
FoamFile
{
    version     2.0;
    format      ascii;
    arch        "LSB;label=32;scalar=64";
    class       surfaceScalarField;
    location    "150";
    object      phi;
}
// * * * * * * * * * * * * * * * * * * * * * * * * * * * * * * * * * * * * * //

dimensions      [0 3 -1 0 0 0 0];

oriented        oriented;

internalField   nonuniform List<scalar> 
24170
(
3.11512e-06
7.32868e-08
3.01297e-06
1.02145e-07
2.91751e-06
9.54602e-08
2.82634e-06
9.11636e-08
2.74035e-06
8.59856e-08
2.66285e-06
7.74969e-08
2.59497e-06
6.7872e-08
2.53609e-06
5.88812e-08
2.48508e-06
5.10056e-08
2.44086e-06
4.42183e-08
2.40246e-06
3.8393e-08
2.36908e-06
3.33786e-08
2.34005e-06
2.90277e-08
2.31483e-06
2.52161e-08
2.29313e-06
2.17006e-08
2.27447e-06
1.86548e-08
2.25874e-06
1.57297e-08
1.23704e-08
2.24637e-06
3.46865e-06
2.1884e-08
3.48677e-06
8.40202e-08
3.49345e-06
8.87817e-08
3.49232e-06
9.22877e-08
3.48433e-06
9.39715e-08
3.47073e-06
9.10973e-08
3.45281e-06
8.57873e-08
3.43178e-06
7.99036e-08
3.40876e-06
7.403e-08
3.38465e-06
6.83245e-08
3.36016e-06
6.28761e-08
3.3358e-06
5.77335e-08
3.31195e-06
5.28778e-08
3.28887e-06
4.82946e-08
3.26676e-06
4.38092e-08
3.24585e-06
3.95648e-08
3.22686e-06
3.47105e-08
2.83831e-08
3.21085e-06
3.66801e-06
1.63896e-08
3.68031e-06
7.17174e-08
3.69001e-06
7.90822e-08
3.70003e-06
8.22612e-08
3.70915e-06
8.48545e-08
3.71625e-06
8.39957e-08
3.72122e-06
8.08113e-08
3.72428e-06
7.6845e-08
3.72565e-06
7.26526e-08
3.7256e-06
6.83762e-08
3.72437e-06
6.41031e-08
3.7222e-06
5.99023e-08
3.71929e-06
5.57852e-08
3.71584e-06
5.17383e-08
3.712e-06
4.76499e-08
3.70811e-06
4.34532e-08
3.70419e-06
3.86317e-08
3.26436e-08
3.69993e-06
3.92495e-06
1.68236e-08
3.93557e-06
6.11043e-08
3.94313e-06
7.15189e-08
3.95015e-06
7.52302e-08
3.95684e-06
7.81629e-08
3.96265e-06
7.81917e-08
3.96762e-06
7.58358e-08
3.97196e-06
7.25013e-08
3.97576e-06
6.88454e-08
3.97909e-06
6.50494e-08
3.98199e-06
6.11996e-08
3.98453e-06
5.7362e-08
3.98676e-06
5.35517e-08
3.98875e-06
4.97472e-08
3.99054e-06
4.58534e-08
3.99224e-06
4.17596e-08
3.99367e-06
3.72001e-08
3.18831e-08
3.99442e-06
4.20772e-06
1.62257e-08
4.21609e-06
5.27355e-08
4.22227e-06
6.53427e-08
4.22776e-06
6.9738e-08
4.23321e-06
7.27097e-08
4.23825e-06
7.31515e-08
4.24279e-06
7.12943e-08
4.24693e-06
6.83608e-08
4.25074e-06
6.50344e-08
4.25426e-06
6.15226e-08
4.25754e-06
5.79142e-08
4.26063e-06
5.42747e-08
4.26356e-06
5.06247e-08
4.26636e-06
4.69436e-08
4.26905e-06
4.31564e-08
4.27164e-06
3.91703e-08
4.274e-06
3.48391e-08
3.00361e-08
4.27585e-06
4.51042e-06
1.48883e-08
4.51713e-06
4.60275e-08
4.52284e-06
5.96289e-08
4.52798e-06
6.45969e-08
4.53313e-06
6.75618e-08
4.538e-06
6.82803e-08
4.54244e-06
6.68504e-08
4.54651e-06
6.42903e-08
4.55028e-06
6.12614e-08
4.55381e-06
5.7993e-08
4.55713e-06
5.45846e-08
4.5603e-06
5.1105e-08
4.56334e-06
4.75831e-08
4.56628e-06
4.40059e-08
4.56911e-06
4.03223e-08
4.57181e-06
3.64675e-08
4.57428e-06
3.2368e-08
2.79974e-08
4.57632e-06
4.83415e-06
1.34587e-08
4.83991e-06
4.0263e-08
4.84555e-06
5.39864e-08
4.85068e-06
5.94704e-08
4.85575e-06
6.24901e-08
4.86059e-06
6.34381e-08
4.86505e-06
6.2389e-08
4.86916e-06
6.01794e-08
4.87299e-06
5.74321e-08
4.87658e-06
5.43941e-08
4.87999e-06
5.1177e-08
4.88324e-06
4.78545e-08
4.88636e-06
4.44644e-08
4.88936e-06
4.10046e-08
4.89223e-06
3.74476e-08
4.89494e-06
3.37568e-08
4.8974e-06
2.99096e-08
2.59367e-08
4.89946e-06
5.18096e-06
1.20813e-08
5.18606e-06
3.51596e-08
5.19159e-06
4.84515e-08
5.19673e-06
5.43281e-08
5.2018e-06
5.74203e-08
5.20669e-06
5.8546e-08
5.21125e-06
5.78279e-08
5.21548e-06
5.59453e-08
5.21944e-06
5.34711e-08
5.22317e-06
5.06629e-08
5.22671e-06
4.76425e-08
5.23007e-06
4.44886e-08
5.23329e-06
4.12475e-08
5.23636e-06
3.79299e-08
5.23928e-06
3.45293e-08
5.242e-06
3.10345e-08
5.24445e-06
2.74543e-08
2.38425e-08
5.24654e-06
5.55268e-06
1.07409e-08
5.55721e-06
3.06251e-08
5.56253e-06
4.31294e-08
5.56766e-06
4.91994e-08
5.57274e-06
5.23337e-08
5.57771e-06
5.35783e-08
5.5824e-06
5.31373e-08
5.58679e-06
5.15558e-08
5.59091e-06
4.93456e-08
5.5948e-06
4.67685e-08
5.59849e-06
4.39533e-08
5.602e-06
4.09833e-08
5.60533e-06
3.79123e-08
5.60849e-06
3.47639e-08
5.61147e-06
3.15487e-08
5.61423e-06
2.82756e-08
5.61671e-06
2.49706e-08
2.16969e-08
5.61886e-06
5.95107e-06
9.44365e-09
5.95512e-06
2.65793e-08
5.96018e-06
3.80682e-08
5.96526e-06
4.41155e-08
5.97035e-06
4.72422e-08
5.97537e-06
4.85511e-08
5.98018e-06
4.83291e-08
5.98472e-06
4.70147e-08
5.98901e-06
4.50538e-08
5.99307e-06
4.27043e-08
5.99692e-06
4.01004e-08
6.00058e-06
3.73282e-08
6.00404e-06
3.44474e-08
6.00731e-06
3.14928e-08
6.01037e-06
2.8488e-08
6.01319e-06
2.54559e-08
6.01573e-06
2.24305e-08
1.94764e-08
6.01795e-06
6.37805e-06
8.21008e-09
6.38168e-06
2.29415e-08
6.38647e-06
3.32796e-08
6.39148e-06
3.91051e-08
6.39655e-06
4.21655e-08
6.40161e-06
4.34907e-08
6.40651e-06
4.34287e-08
6.41118e-06
4.23423e-08
6.41562e-06
4.06114e-08
6.41984e-06
3.84825e-08
6.42385e-06
3.6092e-08
6.42765e-06
3.3528e-08
6.43124e-06
3.0854e-08
6.43462e-06
2.8113e-08
6.43777e-06
2.53376e-08
6.44066e-06
2.25593e-08
6.44328e-06
1.98143e-08
1.71645e-08
6.44559e-06
5.74182e-06
7.21904e-09
5.74463e-06
2.0136e-08
5.74846e-06
2.94415e-08
5.75263e-06
3.49415e-08
5.75689e-06
3.78963e-08
5.76118e-06
3.92036e-08
5.76537e-06
3.92337e-08
5.76941e-06
3.83078e-08
5.77326e-06
3.67555e-08
5.77693e-06
3.48067e-08
5.78043e-06
3.25968e-08
5.78374e-06
3.02145e-08
5.78687e-06
2.77252e-08
5.7898e-06
2.51762e-08
5.79254e-06
2.26051e-08
5.79505e-06
2.00469e-08
5.79732e-06
1.75375e-08
1.5135e-08
5.79935e-06
6.99922e-06
6.15585e-09
7.0022e-06
1.71561e-08
7.00636e-06
2.52752e-08
7.01101e-06
3.02892e-08
7.01586e-06
3.30479e-08
7.02077e-06
3.42896e-08
7.02562e-06
3.43822e-08
7.03032e-06
3.36061e-08
7.03483e-06
3.22384e-08
7.03915e-06
3.04872e-08
7.04327e-06
2.84833e-08
7.04716e-06
2.6314e-08
7.05084e-06
2.40449e-08
7.05429e-06
2.17259e-08
7.0575e-06
1.93969e-08
7.06045e-06
1.70945e-08
7.06314e-06
1.48513e-08
1.27217e-08
7.06555e-06
8.53197e-06
5.02978e-09
8.5351e-06
1.40294e-08
8.53956e-06
2.08109e-08
8.54469e-06
2.5159e-08
8.55013e-06
2.76051e-08
8.5557e-06
2.87147e-08
8.56126e-06
2.88246e-08
8.56669e-06
2.81752e-08
8.57193e-06
2.69911e-08
8.57697e-06
2.54522e-08
8.58177e-06
2.36794e-08
8.58633e-06
2.17563e-08
8.59062e-06
1.97455e-08
8.59465e-06
1.76966e-08
8.5984e-06
1.56492e-08
8.60186e-06
1.36386e-08
8.60501e-06
1.1693e-08
9.86038e-09
8.60787e-06
1.04004e-05
3.85217e-09
1.04036e-05
1.07777e-08
1.04084e-05
1.60743e-08
1.0414e-05
1.95658e-08
1.042e-05
2.15585e-08
1.04263e-05
2.24486e-08
1.04326e-05
2.25151e-08
1.04388e-05
2.19556e-08
1.04449e-05
2.09446e-08
1.04507e-05
1.96272e-08
1.04562e-05
1.81091e-08
1.04615e-05
1.64646e-08
1.04665e-05
1.47509e-08
1.04712e-05
1.30126e-08
1.04756e-05
1.12865e-08
1.04796e-05
9.60334e-09
1.04833e-05
7.98623e-09
6.47578e-09
1.04867e-05
1.2678e-05
2.63097e-09
1.26814e-05
7.39922e-09
1.26864e-05
1.10681e-08
1.26924e-05
1.35113e-08
1.26991e-05
1.48899e-08
1.27061e-05
1.54519e-08
1.27132e-05
1.53995e-08
1.27203e-05
1.48808e-08
1.27272e-05
1.40214e-08
1.27339e-05
1.29285e-08
1.27403e-05
1.16839e-08
1.27465e-05
1.03484e-08
1.27522e-05
8.96812e-09
1.27577e-05
7.58002e-09
1.27627e-05
6.21346e-09
1.27674e-05
4.89327e-09
1.27718e-05
3.63568e-09
2.47424e-09
1.27758e-05
1.54545e-05
1.35804e-09
1.5458e-05
3.85175e-09
1.54633e-05
5.73876e-09
1.54699e-05
6.94155e-09
1.54772e-05
7.53307e-09
1.54851e-05
7.64162e-09
1.54931e-05
7.38335e-09
1.55011e-05
6.84806e-09
1.5509e-05
6.11173e-09
1.55167e-05
5.23971e-09
1.55241e-05
4.28432e-09
1.55312e-05
3.28523e-09
1.55378e-05
2.2733e-09
1.55442e-05
1.27299e-09
1.55501e-05
3.0403e-10
1.55556e-05
-6.17671e-10
1.55607e-05
-1.48251e-09
-2.26545e-09
1.55654e-05
1.8839e-05
-5.20083e-12
1.88428e-05
1.20099e-11
1.88487e-05
-8.87477e-11
1.88559e-05
-3.37216e-10
1.88642e-05
-7.14079e-10
1.8873e-05
-1.19083e-09
1.88821e-05
-1.7435e-09
1.88913e-05
-2.35024e-09
1.89004e-05
-2.98871e-09
1.89093e-05
-3.63937e-09
1.89179e-05
-4.28644e-09
1.89261e-05
-4.91762e-09
1.89339e-05
-5.52247e-09
1.89412e-05
-6.09257e-09
1.89482e-05
-6.62093e-09
1.89546e-05
-7.10185e-09
1.89607e-05
-7.53339e-09
-7.89907e-09
1.89663e-05
2.29649e-05
-1.5588e-09
2.29693e-05
-4.41249e-09
2.29761e-05
-6.84704e-09
2.29846e-05
-8.82534e-09
2.29942e-05
-1.03632e-08
2.30046e-05
-1.1547e-08
2.30153e-05
-1.24668e-08
2.30261e-05
-1.31766e-08
2.30368e-05
-1.3714e-08
2.30473e-05
-1.41134e-08
2.30574e-05
-1.44061e-08
2.30671e-05
-1.46132e-08
2.30763e-05
-1.47504e-08
2.30851e-05
-1.48281e-08
2.30933e-05
-1.48552e-08
2.3101e-05
-1.4837e-08
2.31083e-05
-1.47803e-08
-1.4677e-08
2.3115e-05
1.68119e-05
-2.75946e-09
1.68153e-05
-7.81293e-09
1.68205e-05
-1.20565e-08
1.6827e-05
-1.53295e-08
1.68343e-05
-1.76746e-08
1.68421e-05
-1.93256e-08
1.68501e-05
-2.04761e-08
1.68581e-05
-2.12268e-08
1.68661e-05
-2.16548e-08
1.68738e-05
-2.18405e-08
1.68813e-05
-2.1849e-08
1.68884e-05
-2.17272e-08
1.68951e-05
-2.15075e-08
1.69015e-05
-2.1216e-08
1.69075e-05
-2.08709e-08
1.69132e-05
-2.04861e-08
1.69185e-05
-2.00721e-08
-1.96275e-08
1.69234e-05
1.46357e-05
-3.89057e-09
1.4639e-05
-1.10713e-08
1.4644e-05
-1.709e-08
1.46502e-05
-2.15171e-08
1.4657e-05
-2.44961e-08
1.46642e-05
-2.65e-08
1.46715e-05
-2.78048e-08
1.46788e-05
-2.85293e-08
1.46859e-05
-2.88013e-08
1.46928e-05
-2.87511e-08
1.46995e-05
-2.84749e-08
1.47058e-05
-2.80356e-08
1.47117e-05
-2.74814e-08
1.47174e-05
-2.68493e-08
1.47227e-05
-2.61674e-08
1.47276e-05
-2.54545e-08
1.47323e-05
-2.47258e-08
-2.39829e-08
1.47366e-05
1.27412e-05
-4.91268e-09
1.27444e-05
-1.43105e-08
1.27495e-05
-2.22006e-08
1.27555e-05
-2.75545e-08
1.2762e-05
-3.09458e-08
1.27687e-05
-3.32205e-08
1.27755e-05
-3.46239e-08
1.27822e-05
-3.52563e-08
1.27888e-05
-3.53188e-08
1.2795e-05
-3.5003e-08
1.2801e-05
-3.44276e-08
1.28066e-05
-3.36695e-08
1.28119e-05
-3.27895e-08
1.28169e-05
-3.18349e-08
1.28215e-05
-3.08398e-08
1.28259e-05
-2.98259e-08
1.283e-05
-2.88092e-08
-2.7792e-08
1.28338e-05
1.10917e-05
-5.69231e-09
1.1095e-05
-1.7574e-08
1.11004e-05
-2.75958e-08
1.11063e-05
-3.35311e-08
1.11125e-05
-3.70829e-08
1.11188e-05
-3.95424e-08
1.11251e-05
-4.09683e-08
1.11313e-05
-4.14457e-08
1.11373e-05
-4.12712e-08
1.11429e-05
-4.06811e-08
1.11483e-05
-3.98044e-08
1.11534e-05
-3.87307e-08
1.11581e-05
-3.75341e-08
1.11626e-05
-3.6273e-08
1.11667e-05
-3.49849e-08
1.11706e-05
-3.36965e-08
1.11742e-05
-3.24255e-08
-3.11798e-08
1.11776e-05
9.65564e-06
-6.11576e-09
9.65904e-06
-2.09745e-08
9.66463e-06
-3.31875e-08
9.67041e-06
-3.93168e-08
9.67631e-06
-4.2987e-08
9.68235e-06
-4.55839e-08
9.68828e-06
-4.68962e-08
9.69395e-06
-4.71238e-08
9.69936e-06
-4.66811e-08
9.70449e-06
-4.58152e-08
9.70934e-06
-4.46464e-08
9.71388e-06
-4.3273e-08
9.71812e-06
-4.17816e-08
9.72208e-06
-4.02373e-08
9.72578e-06
-3.86825e-08
9.72923e-06
-3.71434e-08
9.73243e-06
-3.56332e-08
-3.41455e-08
9.7354e-06
8.40494e-06
-5.70546e-09
8.40932e-06
-2.535e-08
8.41473e-06
-3.86033e-08
8.41983e-06
-4.4421e-08
8.42539e-06
-4.85501e-08
8.43124e-06
-5.14362e-08
8.43695e-06
-5.26014e-08
8.44236e-06
-5.25358e-08
8.44747e-06
-5.17942e-08
8.45228e-06
-5.06255e-08
8.45678e-06
-4.91462e-08
8.46097e-06
-4.74655e-08
8.46486e-06
-4.56799e-08
8.46849e-06
-4.386e-08
8.47185e-06
-4.20502e-08
8.47499e-06
-4.02795e-08
8.47792e-06
-3.85724e-08
-3.69382e-08
8.48072e-06
7.31364e-06
-2.06604e-09
7.3207e-06
-3.2409e-08
7.3265e-06
-4.44027e-08
7.3313e-06
-4.92244e-08
7.33667e-06
-5.39224e-08
7.34232e-06
-5.70883e-08
7.34784e-06
-5.81239e-08
7.35314e-06
-5.78318e-08
7.35818e-06
-5.68386e-08
7.36293e-06
-5.53766e-08
7.36736e-06
-5.35794e-08
7.37147e-06
-5.1578e-08
7.37528e-06
-4.94844e-08
7.37879e-06
-4.73743e-08
7.38204e-06
-4.52977e-08
7.38504e-06
-4.32843e-08
7.38781e-06
-4.13449e-08
-3.94281e-08
7.3903e-06
6.36047e-06
7.53273e-09
6.37029e-06
-4.2236e-08
6.37817e-06
-5.22849e-08
6.38523e-06
-5.62841e-08
6.39235e-06
-6.1038e-08
6.39895e-06
-6.36943e-08
6.40493e-06
-6.41029e-08
6.41046e-06
-6.3368e-08
6.41565e-06
-6.20249e-08
6.42048e-06
-6.02084e-08
6.42494e-06
-5.80446e-08
6.42904e-06
-5.56747e-08
6.43278e-06
-5.32271e-08
6.43618e-06
-5.07783e-08
6.43927e-06
-4.83864e-08
6.44208e-06
-4.60926e-08
6.44466e-06
-4.39281e-08
-4.19207e-08
6.44715e-06
5.53917e-06
1.38279e-08
5.54752e-06
-5.05859e-08
5.55586e-06
-6.06267e-08
5.56611e-06
-6.6535e-08
5.5773e-06
-7.22341e-08
5.58779e-06
-7.41843e-08
5.597e-06
-7.33127e-08
5.60494e-06
-7.13175e-08
5.6117e-06
-6.87839e-08
5.61734e-06
-6.58526e-08
5.62194e-06
-6.26469e-08
5.62559e-06
-5.93217e-08
5.62837e-06
-5.60123e-08
5.63039e-06
-5.27933e-08
5.63172e-06
-4.97161e-08
5.63247e-06
-4.68499e-08
5.63275e-06
-4.42051e-08
-4.18739e-08
5.6327e-06
4.87157e-06
-3.01374e-08
4.88648e-06
-6.54917e-08
4.89722e-06
-7.13685e-08
4.90599e-06
-7.53105e-08
4.91303e-06
-7.92776e-08
4.9173e-06
-7.84604e-08
4.91813e-06
-7.41396e-08
4.91539e-06
-6.85766e-08
4.90939e-06
-6.27882e-08
4.90065e-06
-5.71161e-08
4.88973e-06
-5.17305e-08
4.87714e-06
-4.67304e-08
4.86332e-06
-4.2198e-08
4.84865e-06
-3.81254e-08
4.83344e-06
-3.44985e-08
4.81793e-06
-3.1341e-08
4.80239e-06
-2.86681e-08
-2.69746e-08
4.78749e-06
4.17254e-06
4.10705e-06
4.03568e-06
3.96037e-06
3.88109e-06
3.80263e-06
3.72849e-06
3.65991e-06
3.59712e-06
3.54001e-06
3.48828e-06
3.44155e-06
3.39935e-06
3.36122e-06
3.32672e-06
3.29538e-06
3.26671e-06
3.23974e-06
1.92238e-08
-1.92869e-08
4.22011e-08
-2.30665e-08
6.07429e-08
-1.86175e-08
7.25495e-08
-1.18787e-08
7.70577e-08
-4.57632e-09
7.46448e-08
2.34253e-09
6.63344e-08
8.24228e-09
5.34242e-08
1.28363e-08
3.71335e-08
1.62178e-08
1.84125e-08
1.86392e-08
-2.02563e-09
2.03607e-08
-2.39246e-08
2.18183e-08
-4.72164e-08
2.32242e-08
-7.18224e-08
2.45365e-08
-9.77364e-08
2.58566e-08
-1.25013e-07
2.72158e-08
-1.53668e-07
2.86064e-08
-1.83731e-07
3.00081e-08
-2.15165e-07
3.13905e-08
-2.47944e-07
3.27262e-08
-2.81973e-07
3.39875e-08
-3.17181e-07
3.51554e-08
-3.53438e-07
3.62135e-08
-3.90645e-07
3.71514e-08
-4.28647e-07
3.7958e-08
-4.67331e-07
3.8627e-08
-5.06533e-07
3.91591e-08
-5.46153e-07
3.9563e-08
-5.86047e-07
3.98515e-08
-6.26146e-07
4.00453e-08
-6.66358e-07
4.01749e-08
-7.06669e-07
4.02608e-08
-7.47008e-07
4.03063e-08
-7.87371e-07
4.03195e-08
-8.27704e-07
4.03064e-08
-8.68018e-07
4.02742e-08
-9.08271e-07
4.02293e-08
-9.48487e-07
4.01787e-08
-9.88636e-07
4.01277e-08
-1.02875e-06
4.00794e-08
-1.06881e-06
4.00356e-08
-1.10884e-06
3.99987e-08
-1.14883e-06
3.99697e-08
-1.18881e-06
3.99492e-08
-1.22876e-06
3.99365e-08
-1.26872e-06
3.99297e-08
-1.30866e-06
3.99265e-08
-1.34861e-06
3.99262e-08
-1.38855e-06
3.99282e-08
-1.42852e-06
3.99311e-08
-1.46847e-06
3.99334e-08
-1.50844e-06
3.99328e-08
-1.5484e-06
3.99281e-08
-1.58836e-06
3.99167e-08
-1.62828e-06
3.98978e-08
-1.66819e-06
3.98673e-08
-1.70805e-06
3.98249e-08
-1.74786e-06
3.97673e-08
-1.78758e-06
3.96945e-08
-1.82723e-06
3.96019e-08
-1.86675e-06
3.94907e-08
-1.90615e-06
3.93572e-08
-1.94537e-06
3.92027e-08
-1.98443e-06
3.90222e-08
-2.02326e-06
3.88179e-08
-2.06188e-06
3.85844e-08
-2.10021e-06
3.83251e-08
-2.13827e-06
3.80347e-08
-2.17599e-06
3.77175e-08
-2.21339e-06
3.73675e-08
-2.25037e-06
3.69898e-08
-2.28697e-06
3.6578e-08
-2.32311e-06
3.61366e-08
-2.35879e-06
3.56579e-08
-2.39393e-06
3.51471e-08
-2.42856e-06
3.4594e-08
-2.46256e-06
3.4004e-08
-2.49596e-06
3.33681e-08
-2.52865e-06
3.26925e-08
-2.56063e-06
3.19649e-08
-2.59181e-06
3.11921e-08
-2.62218e-06
3.03618e-08
-2.65163e-06
2.94804e-08
-2.68016e-06
2.85305e-08
-2.70764e-06
2.75197e-08
-2.73406e-06
2.64303e-08
-2.75926e-06
2.52678e-08
-2.7832e-06
2.40107e-08
-2.80573e-06
2.26518e-08
-2.82675e-06
2.11818e-08
-2.84617e-06
1.95721e-08
-2.86383e-06
1.78134e-08
-2.87958e-06
1.58818e-08
-2.89321e-06
1.37597e-08
-2.9045e-06
1.14129e-08
-2.91319e-06
8.81653e-09
-2.91904e-06
5.96175e-09
-2.92183e-06
2.90343e-09
-2.92159e-06
-1.52689e-10
-2.91843e-06
-3.08279e-09
-2.91237e-06
-6.01161e-09
-2.9033e-06
-9.04344e-09
-2.89108e-06
-1.22125e-08
-2.87558e-06
-1.55348e-08
-2.85661e-06
-1.90027e-08
-2.83403e-06
-2.26226e-08
-2.80768e-06
-2.63777e-08
-2.77742e-06
-3.02723e-08
-2.74312e-06
-3.42856e-08
-2.70467e-06
-3.84175e-08
-2.66197e-06
-4.26417e-08
-2.61494e-06
-4.69511e-08
-2.56351e-06
-5.13145e-08
-2.50767e-06
-5.5716e-08
-2.44739e-06
-6.01204e-08
-2.38271e-06
-6.45049e-08
-2.31367e-06
-6.88392e-08
-2.24036e-06
-7.309e-08
-2.1629e-06
-7.72387e-08
-2.08141e-06
-8.12534e-08
-1.9961e-06
-8.5043e-08
-1.90724e-06
-8.85574e-08
-1.81511e-06
-9.18174e-08
-1.71997e-06
-9.47905e-08
-1.62219e-06
-9.74502e-08
-1.52211e-06
-9.97433e-08
-1.42016e-06
-1.01663e-07
-1.31672e-06
-1.03173e-07
-1.21222e-06
-1.04283e-07
-1.10708e-06
-1.0496e-07
-1.00174e-06
-1.05228e-07
-8.96593e-07
-1.05069e-07
-7.92078e-07
-1.04521e-07
-6.88546e-07
-1.03579e-07
-5.86391e-07
-1.02291e-07
-4.85917e-07
-1.00657e-07
-3.87446e-07
-9.87443e-08
-2.91261e-07
-9.65182e-08
-1.97523e-07
-9.41634e-08
-1.06084e-07
-9.19105e-08
-1.68243e-08
-8.97511e-08
7.03701e-08
-8.76582e-08
1.54789e-07
-8.48366e-08
2.35456e-07
-8.1047e-08
3.1212e-07
-7.70074e-08
3.84715e-07
-7.29105e-08
4.53269e-07
-6.88371e-08
5.17841e-07
-6.48325e-08
5.78528e-07
-6.09212e-08
6.35436e-07
-5.7123e-08
6.88691e-07
-5.34484e-08
7.38421e-07
-4.99088e-08
7.8477e-07
-4.651e-08
8.27881e-07
-4.32601e-08
8.67909e-07
-4.01616e-08
9.05008e-07
-3.72208e-08
9.39338e-07
-3.44396e-08
9.71063e-07
-3.18233e-08
1.00035e-06
-2.93725e-08
1.02736e-06
-2.70914e-08
1.05228e-06
-2.49804e-08
1.07527e-06
-2.30438e-08
1.0965e-06
-2.12801e-08
1.11616e-06
-1.96918e-08
1.1344e-06
-1.82759e-08
1.15141e-06
-1.70325e-08
1.16735e-06
-1.59554e-08
1.18238e-06
-1.504e-08
1.19665e-06
-1.42743e-08
1.2103e-06
-1.36468e-08
1.22343e-06
-1.3132e-08
1.23614e-06
-1.26963e-08
1.24843e-06
-1.22773e-08
1.26022e-06
-1.17763e-08
1.27124e-06
-1.09966e-08
1.28081e-06
-9.53804e-09
1.28727e-06
-6.43017e-09
1.28584e-06
1.47493e-09
1.26536e-06
2.05094e-08
6.54667e-08
1.1999e-06
1.69049e-08
-3.62441e-08
2.40234e-08
-3.02429e-08
2.39609e-08
-1.85938e-08
1.91083e-08
-7.05899e-09
1.06902e-08
3.81256e-09
-7.65194e-10
1.37691e-08
-1.51357e-08
2.25857e-08
-3.24551e-08
3.01283e-08
-5.26769e-08
3.64136e-08
-7.56579e-08
4.15938e-08
-1.01213e-07
4.58915e-08
-1.28973e-07
4.95529e-08
-1.58562e-07
5.27906e-08
-1.89805e-07
5.57561e-08
-2.2252e-07
5.85508e-08
-2.56551e-07
6.12246e-08
-2.91751e-07
6.37867e-08
-3.27986e-07
6.62232e-08
-3.65123e-07
6.85085e-08
-4.03032e-07
7.0615e-08
-4.41581e-07
7.25178e-08
-4.80646e-07
7.41998e-08
-5.20103e-07
7.56512e-08
-5.59845e-07
7.68702e-08
-5.99767e-07
7.78592e-08
-6.3979e-07
7.86258e-08
-6.79838e-07
7.91855e-08
-7.19862e-07
7.95618e-08
-7.59815e-07
7.97822e-08
-7.99671e-07
7.98765e-08
-8.39391e-07
7.98742e-08
-8.78953e-07
7.97992e-08
-9.18333e-07
7.9668e-08
-9.57532e-07
7.9497e-08
-9.96541e-07
7.92991e-08
-1.03537e-06
7.90861e-08
-1.07403e-06
7.88672e-08
-1.11252e-06
7.86497e-08
-1.15084e-06
7.84387e-08
-1.18902e-06
7.82387e-08
-1.22705e-06
7.80515e-08
-1.26495e-06
7.78796e-08
-1.30271e-06
7.7723e-08
-1.34036e-06
7.75812e-08
-1.37789e-06
7.74525e-08
-1.41531e-06
7.73354e-08
-1.45262e-06
7.7227e-08
-1.48983e-06
7.71244e-08
-1.52694e-06
7.70236e-08
-1.56394e-06
7.69212e-08
-1.60084e-06
7.68128e-08
-1.63762e-06
7.66948e-08
-1.67427e-06
7.65632e-08
-1.71079e-06
7.64145e-08
-1.74715e-06
7.62444e-08
-1.78336e-06
7.60491e-08
-1.81938e-06
7.58252e-08
-1.85521e-06
7.55693e-08
-1.89081e-06
7.52779e-08
-1.92618e-06
7.49479e-08
-1.96129e-06
7.4577e-08
-1.99611e-06
7.41623e-08
-2.03063e-06
7.37017e-08
-2.06482e-06
7.3192e-08
-2.09865e-06
7.26315e-08
-2.1321e-06
7.20176e-08
-2.16513e-06
7.1349e-08
-2.19774e-06
7.06234e-08
-2.22987e-06
6.984e-08
-2.26151e-06
6.8996e-08
-2.29261e-06
6.80907e-08
-2.32316e-06
6.71204e-08
-2.35311e-06
6.60839e-08
-2.38244e-06
6.49764e-08
-2.41109e-06
6.37963e-08
-2.43905e-06
6.25381e-08
-2.46625e-06
6.1201e-08
-2.49267e-06
5.97789e-08
-2.51825e-06
5.82696e-08
-2.54295e-06
5.66646e-08
-2.56672e-06
5.49611e-08
-2.5895e-06
5.31489e-08
-2.61123e-06
5.12236e-08
-2.63187e-06
4.91721e-08
-2.65132e-06
4.69889e-08
-2.66953e-06
4.46589e-08
-2.6864e-06
4.21736e-08
-2.70186e-06
3.95125e-08
-2.71579e-06
3.66659e-08
-2.72812e-06
3.36083e-08
-2.73878e-06
3.03278e-08
-2.74769e-06
2.68068e-08
-2.75475e-06
2.30343e-08
-2.75993e-06
1.90091e-08
-2.76316e-06
1.47278e-08
-2.76448e-06
1.0202e-08
-2.7639e-06
5.44734e-09
-2.76143e-06
4.92354e-10
-2.75685e-06
-4.68242e-09
-2.74978e-06
-1.01146e-08
-2.73994e-06
-1.58285e-08
-2.72715e-06
-2.18318e-08
-2.71124e-06
-2.81366e-08
-2.69205e-06
-3.4746e-08
-2.66944e-06
-4.16564e-08
-2.64323e-06
-4.88619e-08
-2.61328e-06
-5.63491e-08
-2.57945e-06
-6.41067e-08
-2.54162e-06
-7.21129e-08
-2.49967e-06
-8.03474e-08
-2.4535e-06
-8.87764e-08
-2.40303e-06
-9.73676e-08
-2.3482e-06
-1.06073e-07
-2.28899e-06
-1.14849e-07
-2.22538e-06
-1.23632e-07
-2.15741e-06
-1.32366e-07
-2.08515e-06
-1.40983e-07
-2.00869e-06
-1.49425e-07
-1.92818e-06
-1.57617e-07
-1.8438e-06
-1.65498e-07
-1.75574e-06
-1.72945e-07
-1.66429e-06
-1.79836e-07
-1.56976e-06
-1.86159e-07
-1.47249e-06
-1.91882e-07
-1.37283e-06
-1.96917e-07
-1.2712e-06
-2.01199e-07
-1.16802e-06
-2.04686e-07
-1.06372e-06
-2.07338e-07
-9.58739e-07
-2.09143e-07
-8.53533e-07
-2.10079e-07
-7.48532e-07
-2.10165e-07
-6.44161e-07
-2.09408e-07
-5.40824e-07
-2.07853e-07
-4.38901e-07
-2.0553e-07
-3.38744e-07
-2.02505e-07
-2.40672e-07
-1.98817e-07
-1.44946e-07
-1.94587e-07
-5.16615e-08
-1.89954e-07
3.90425e-08
-1.85044e-07
1.26757e-07
-1.79818e-07
2.10993e-07
-1.74178e-07
2.91227e-07
-1.68074e-07
3.67554e-07
-1.61328e-07
4.40365e-07
-1.54013e-07
5.0966e-07
-1.46446e-07
5.75421e-07
-1.38806e-07
6.37657e-07
-1.31197e-07
6.96403e-07
-1.23695e-07
7.5172e-07
-1.16346e-07
8.03686e-07
-1.0919e-07
8.52398e-07
-1.02252e-07
8.97962e-07
-9.55583e-08
9.40498e-07
-8.91254e-08
9.80135e-07
-8.29704e-08
1.01701e-06
-7.71046e-08
1.05127e-06
-7.154e-08
1.08306e-06
-6.62862e-08
1.11254e-06
-6.13512e-08
1.13987e-06
-5.67425e-08
1.16521e-06
-5.24649e-08
1.18872e-06
-4.85253e-08
1.21058e-06
-4.49262e-08
1.23095e-06
-4.16719e-08
1.25e-06
-3.87596e-08
1.2679e-06
-3.61908e-08
1.28483e-06
-3.39586e-08
1.30093e-06
-3.20582e-08
1.31636e-06
-3.04723e-08
1.33128e-06
-2.91857e-08
1.34581e-06
-2.8165e-08
1.36006e-06
-2.73693e-08
1.3741e-06
-2.67232e-08
1.38796e-06
-2.61169e-08
1.40156e-06
-2.53537e-08
1.41468e-06
-2.40851e-08
1.42681e-06
-2.16339e-08
1.43693e-06
-1.65079e-08
1.44404e-06
-5.59847e-09
1.44607e-06
1.85168e-08
7.30219e-08
1.43854e-06
1.81152e-09
-3.80965e-08
-5.17542e-09
-2.32955e-08
-1.59783e-08
-7.81557e-09
-2.91897e-08
6.13277e-09
-4.42122e-08
1.88183e-08
-6.08349e-08
3.03757e-08
-7.90728e-08
4.08087e-08
-9.90486e-08
5.00889e-08
-1.20882e-07
5.82332e-08
-1.4463e-07
6.53267e-08
-1.70259e-07
7.15062e-08
-1.97652e-07
7.69318e-08
-2.26634e-07
8.1759e-08
-2.5701e-07
8.61187e-08
-2.88576e-07
9.01048e-08
-3.21139e-07
9.37746e-08
-3.54519e-07
9.71548e-08
-3.88559e-07
1.00252e-07
-4.23121e-07
1.0306e-07
-4.58088e-07
1.0557e-07
-4.93356e-07
1.07775e-07
-5.28839e-07
1.0967e-07
-5.64454e-07
1.11255e-07
-6.00138e-07
1.1254e-07
-6.35833e-07
1.13542e-07
-6.71507e-07
1.14285e-07
-7.07133e-07
1.14799e-07
-7.42699e-07
1.15112e-07
-7.78186e-07
1.15256e-07
-8.13588e-07
1.15263e-07
-8.48888e-07
1.15161e-07
-8.8408e-07
1.14976e-07
-9.19154e-07
1.14729e-07
-9.54111e-07
1.1444e-07
-9.88949e-07
1.14125e-07
-1.02367e-06
1.13797e-07
-1.05828e-06
1.13466e-07
-1.09279e-06
1.13141e-07
-1.12719e-06
1.12827e-07
-1.16149e-06
1.1253e-07
-1.1957e-06
1.1225e-07
-1.22982e-06
1.1199e-07
-1.26386e-06
1.1175e-07
-1.29781e-06
1.11527e-07
-1.33169e-06
1.11319e-07
-1.36548e-06
1.11124e-07
-1.3992e-06
1.10937e-07
-1.43284e-06
1.10754e-07
-1.46639e-06
1.1057e-07
-1.49986e-06
1.10378e-07
-1.53323e-06
1.10174e-07
-1.5665e-06
1.09952e-07
-1.59965e-06
1.09706e-07
-1.63268e-06
1.09431e-07
-1.66557e-06
1.09122e-07
-1.69831e-06
1.08772e-07
-1.73087e-06
1.08378e-07
-1.76325e-06
1.07934e-07
-1.79542e-06
1.07436e-07
-1.82737e-06
1.06881e-07
-1.85907e-06
1.06263e-07
-1.89051e-06
1.05581e-07
-1.92165e-06
1.04829e-07
-1.95248e-06
1.04006e-07
-1.98296e-06
1.03107e-07
-2.01309e-06
1.0213e-07
-2.04282e-06
1.01073e-07
-2.07214e-06
9.99321e-08
-2.10101e-06
9.87055e-08
-2.12941e-06
9.73902e-08
-2.15731e-06
9.59833e-08
-2.18468e-06
9.44812e-08
-2.21148e-06
9.28804e-08
-2.23768e-06
9.11761e-08
-2.26325e-06
8.93642e-08
-2.28816e-06
8.74394e-08
-2.31236e-06
8.53974e-08
-2.33581e-06
8.32319e-08
-2.35848e-06
8.09369e-08
-2.38032e-06
7.8504e-08
-2.40128e-06
7.59253e-08
-2.42132e-06
7.31902e-08
-2.44038e-06
7.02884e-08
-2.4584e-06
6.72067e-08
-2.47534e-06
6.39329e-08
-2.49112e-06
6.04511e-08
-2.50567e-06
5.67459e-08
-2.51893e-06
5.27994e-08
-2.53081e-06
4.85911e-08
-2.54124e-06
4.41051e-08
-2.55017e-06
3.93176e-08
-2.55753e-06
3.42135e-08
-2.56323e-06
2.87855e-08
-2.56721e-06
2.30237e-08
-2.56936e-06
1.69288e-08
-2.56962e-06
1.04942e-08
-2.56786e-06
3.71809e-09
-2.56392e-06
-3.4215e-09
-2.55762e-06
-1.09625e-08
-2.54878e-06
-1.89416e-08
-2.53723e-06
-2.73713e-08
-2.52282e-06
-3.62568e-08
-2.50538e-06
-4.5603e-08
-2.48475e-06
-5.54059e-08
-2.46078e-06
-6.56631e-08
-2.43331e-06
-7.63589e-08
-2.4022e-06
-8.74817e-08
-2.3673e-06
-9.90055e-08
-2.32851e-06
-1.10906e-07
-2.2857e-06
-1.23143e-07
-2.23878e-06
-1.35674e-07
-2.18767e-06
-1.48441e-07
-2.13232e-06
-1.61379e-07
-2.0727e-06
-1.7441e-07
-2.00882e-06
-1.87449e-07
-1.94071e-06
-2.00399e-07
-1.86846e-06
-2.13161e-07
-1.79217e-06
-2.25629e-07
-1.71201e-06
-2.37692e-07
-1.62817e-06
-2.49243e-07
-1.54086e-06
-2.60139e-07
-1.45037e-06
-2.70206e-07
-1.35703e-06
-2.79368e-07
-1.2612e-06
-2.87585e-07
-1.16325e-06
-2.94737e-07
-1.0636e-06
-3.00736e-07
-9.62664e-07
-3.05512e-07
-8.60889e-07
-3.09023e-07
-7.58707e-07
-3.11243e-07
-6.56564e-07
-3.12165e-07
-5.54877e-07
-3.11806e-07
-4.54062e-07
-3.10202e-07
-3.54501e-07
-3.07407e-07
-2.56558e-07
-3.03491e-07
-1.60553e-07
-2.98543e-07
-6.67318e-08
-2.92694e-07
2.4672e-08
-2.86064e-07
1.13347e-07
-2.78723e-07
1.98945e-07
-2.70751e-07
2.81218e-07
-2.62204e-07
3.6002e-07
-2.53088e-07
4.35232e-07
-2.4338e-07
5.069e-07
-2.33082e-07
5.75145e-07
-2.22332e-07
6.39984e-07
-2.11352e-07
7.0143e-07
-2.00311e-07
7.5951e-07
-1.89332e-07
8.14275e-07
-1.78508e-07
8.65793e-07
-1.67907e-07
9.14148e-07
-1.57584e-07
9.59442e-07
-1.47582e-07
1.00179e-06
-1.37935e-07
1.0413e-06
-1.28674e-07
1.07813e-06
-1.19821e-07
1.11239e-06
-1.11397e-07
1.14425e-06
-1.03419e-07
1.17384e-06
-9.59029e-08
1.20133e-06
-8.88602e-08
1.22687e-06
-8.2303e-08
1.25062e-06
-7.62386e-08
1.27276e-06
-7.06764e-08
1.29344e-06
-6.56201e-08
1.31283e-06
-6.10745e-08
1.33109e-06
-5.70368e-08
1.3484e-06
-5.35065e-08
1.3649e-06
-5.04748e-08
1.38077e-06
-4.79316e-08
1.39614e-06
-4.58539e-08
1.41116e-06
-4.42151e-08
1.42596e-06
-4.29681e-08
1.44063e-06
-4.20492e-08
1.45525e-06
-4.13524e-08
1.46984e-06
-4.07181e-08
1.48436e-06
-3.98753e-08
1.49863e-06
-3.83576e-08
1.5123e-06
-3.53155e-08
1.52484e-06
-2.90522e-08
1.53574e-06
-1.64932e-08
1.54537e-06
8.88264e-09
6.1285e-08
1.55709e-06
-1.1434e-08
-2.66966e-08
-2.74555e-08
-7.30359e-09
-4.48335e-08
9.54434e-09
-6.30331e-08
2.43181e-08
-8.19264e-08
3.76993e-08
-1.0153e-07
4.99677e-08
-1.21942e-07
6.12096e-08
-1.43304e-07
7.14397e-08
-1.65754e-07
8.0673e-08
-1.89392e-07
8.89529e-08
-2.1425e-07
9.6354e-08
-2.403e-07
1.02971e-07
-2.67455e-07
1.08904e-07
-2.95592e-07
1.14245e-07
-3.24565e-07
1.19068e-07
-3.54228e-07
1.23428e-07
-3.84441e-07
1.27359e-07
-4.15083e-07
1.30884e-07
-4.46046e-07
1.34014e-07
-4.77243e-07
1.36759e-07
-5.08602e-07
1.39126e-07
-5.40068e-07
1.41127e-07
-5.71597e-07
1.42776e-07
-6.03161e-07
1.44095e-07
-6.34738e-07
1.4511e-07
-6.66316e-07
1.45852e-07
-6.9788e-07
1.46353e-07
-7.29425e-07
1.46646e-07
-7.60941e-07
1.46763e-07
-7.92425e-07
1.46736e-07
-8.23868e-07
1.46594e-07
-8.55267e-07
1.46363e-07
-8.86616e-07
1.46068e-07
-9.17914e-07
1.45727e-07
-9.49157e-07
1.45359e-07
-9.80347e-07
1.44976e-07
-1.01148e-06
1.44591e-07
-1.04256e-06
1.44212e-07
-1.07359e-06
1.43845e-07
-1.10457e-06
1.43496e-07
-1.13549e-06
1.43166e-07
-1.16636e-06
1.42857e-07
-1.19719e-06
1.42568e-07
-1.22797e-06
1.42297e-07
-1.2587e-06
1.4204e-07
-1.28937e-06
1.41794e-07
-1.31999e-06
1.41553e-07
-1.35056e-06
1.41312e-07
-1.38106e-06
1.41064e-07
-1.41149e-06
1.40802e-07
-1.44184e-06
1.40519e-07
-1.4721e-06
1.40208e-07
-1.50226e-06
1.39863e-07
-1.53232e-06
1.39476e-07
-1.56224e-06
1.3904e-07
-1.59203e-06
1.3855e-07
-1.62166e-06
1.37999e-07
-1.65112e-06
1.37381e-07
-1.68039e-06
1.36691e-07
-1.70944e-06
1.35924e-07
-1.73826e-06
1.35074e-07
-1.76683e-06
1.34138e-07
-1.79513e-06
1.33111e-07
-1.82312e-06
1.3199e-07
-1.85079e-06
1.3077e-07
-1.87812e-06
1.29448e-07
-1.90508e-06
1.2802e-07
-1.93164e-06
1.26483e-07
-1.95777e-06
1.24834e-07
-1.98346e-06
1.23069e-07
-2.00866e-06
1.21185e-07
-2.03336e-06
1.19176e-07
-2.05752e-06
1.17038e-07
-2.08111e-06
1.14767e-07
-2.1041e-06
1.12356e-07
-2.12647e-06
1.09799e-07
-2.14816e-06
1.07089e-07
-2.16915e-06
1.0422e-07
-2.18939e-06
1.01183e-07
-2.20885e-06
9.7967e-08
-2.22749e-06
9.45625e-08
-2.24525e-06
9.09565e-08
-2.2621e-06
8.71355e-08
-2.27797e-06
8.30843e-08
-2.29282e-06
7.87864e-08
-2.30658e-06
7.42238e-08
-2.3192e-06
6.93772e-08
-2.33061e-06
6.42252e-08
-2.34073e-06
5.87483e-08
-2.3495e-06
5.29169e-08
-2.35686e-06
4.67156e-08
-2.36274e-06
4.01183e-08
-2.36704e-06
3.31108e-08
-2.36966e-06
2.56761e-08
-2.37052e-06
1.78013e-08
-2.36947e-06
9.46647e-09
-2.36639e-06
6.51504e-10
-2.36113e-06
-8.67754e-09
-2.35353e-06
-1.85571e-08
-2.34346e-06
-2.9018e-08
-2.33077e-06
-4.0077e-08
-2.31531e-06
-5.17424e-08
-2.29693e-06
-6.40192e-08
-2.27547e-06
-7.69019e-08
-2.25078e-06
-9.03858e-08
-2.22271e-06
-1.04452e-07
-2.19113e-06
-1.19085e-07
-2.15589e-06
-1.3425e-07
-2.11688e-06
-1.49915e-07