/*--------------------------------*- C++ -*----------------------------------*\
| =========                 |                                                 |
| \\      /  F ield         | OpenFOAM: The Open Source CFD Toolbox           |
|  \\    /   O peration     | Version:  2212                                  |
|   \\  /    A nd           | Website:  www.openfoam.com                      |
|    \\/     M anipulation  |                                                 |
\*---------------------------------------------------------------------------*/
FoamFile
{
    version     2.0;
    format      ascii;
    arch        "LSB;label=32;scalar=64";
    class       volVectorField;
    location    "150";
    object      U;
}
// * * * * * * * * * * * * * * * * * * * * * * * * * * * * * * * * * * * * * //

dimensions      [0 1 -1 0 0 0 0];

internalField   nonuniform List<vector> 
12225
(
(9.84118 -0.956374 0)
(9.59255 -0.887949 0)
(9.31758 -0.594498 0)
(9.01477 -0.370019 0)
(8.72588 -0.225988 0)
(8.46729 -0.137882 0)
(8.24025 -0.0845009 0)
(8.04203 -0.0516484 0)
(7.87017 -0.0312548 0)
(7.72125 -0.0186268 0)
(7.59228 -0.0106887 0)
(7.4801 -0.00575861 0)
(7.38262 -0.00276567 0)
(7.29778 -0.00107041 0)
(7.22404 -0.000212224 0)
(7.16229 -0.000600072 0)
(7.10322 0.00231832 0)
(7.07601 -0.0176231 0)
(10.0722 0.255857 0)
(10.1867 0.418352 0)
(10.2285 0.38414 0)
(10.2296 0.3104 0)
(10.2114 0.245675 0)
(10.1794 0.195424 0)
(10.1335 0.157661 0)
(10.076 0.129646 0)
(10.0106 0.10879 0)
(9.94108 0.0930487 0)
(9.86954 0.0808611 0)
(9.79783 0.0712349 0)
(9.72699 0.0634166 0)
(9.65822 0.0569331 0)
(9.59185 0.051135 0)
(9.5289 0.0464622 0)
(9.46987 0.0398646 0)
(9.41683 0.0397746 0)
(10.0032 0.0599568 0)
(10.0309 0.0482957 0)
(10.0614 0.00999531 0)
(10.0898 -8.71057e-06 0)
(10.1152 0.00814976 0)
(10.1377 0.0194001 0)
(10.1548 0.0289815 0)
(10.1658 0.0364569 0)
(10.1716 0.0420057 0)
(10.1732 0.0458465 0)
(10.1713 0.048293 0)
(10.1666 0.0496384 0)
(10.1595 0.0501176 0)
(10.1507 0.0498773 0)
(10.1407 0.0489468 0)
(10.1299 0.0473291 0)
(10.1192 0.0447021 0)
(10.1074 0.039755 0)
(9.99715 0.00991721 0)
(10.009 0.0260931 0)
(10.0342 0.0382972 0)
(10.0554 0.0533784 0)
(10.0722 0.064902 0)
(10.0876 0.0702335 0)
(10.1015 0.0713759 0)
(10.1135 0.070608 0)
(10.1238 0.0690148 0)
(10.1328 0.067022 0)
(10.1407 0.0648282 0)
(10.1476 0.0625541 0)
(10.1536 0.0602182 0)
(10.159 0.0577965 0)
(10.1638 0.0551458 0)
(10.1682 0.05212 0)
(10.1721 0.0482143 0)
(10.1752 0.0423444 0)
(9.99907 0.00680844 0)
(10.0082 0.0342996 0)
(10.0279 0.0483436 0)
(10.0436 0.0548774 0)
(10.0559 0.0583349 0)
(10.0679 0.0595046 0)
(10.0794 0.0592605 0)
(10.0899 0.0585022 0)
(10.0993 0.05759 0)
(10.1079 0.056558 0)
(10.116 0.0553961 0)
(10.1236 0.0540983 0)
(10.1307 0.0526383 0)
(10.1375 0.0509561 0)
(10.144 0.0489275 0)
(10.1503 0.0463887 0)
(10.1562 0.0430042 0)
(10.1614 0.0384681 0)
(10.0002 0.00924144 0)
(10.008 0.0334038 0)
(10.0236 0.0440616 0)
(10.0369 0.0483792 0)
(10.0478 0.0518283 0)
(10.0586 0.054212 0)
(10.0691 0.0552278 0)
(10.0786 0.0553723 0)
(10.0873 0.0550375 0)
(10.0953 0.0543535 0)
(10.1029 0.0533726 0)
(10.1101 0.0521359 0)
(10.117 0.0506517 0)
(10.1236 0.0488874 0)
(10.13 0.0467535 0)
(10.1361 0.0441259 0)
(10.1419 0.0408277 0)
(10.147 0.0367395 0)
(10.0003 0.0091227 0)
(10.007 0.0287493 0)
(10.0201 0.038876 0)
(10.0323 0.0439984 0)
(10.0426 0.0480867 0)
(10.0526 0.0508736 0)
(10.0623 0.0520999 0)
(10.0713 0.0523129 0)
(10.0794 0.0519756 0)
(10.0871 0.0512618 0)
(10.0943 0.0502402 0)
(10.1012 0.0489541 0)
(10.1078 0.0474166 0)
(10.1141 0.045599 0)
(10.1202 0.0434343 0)
(10.126 0.0408322 0)
(10.1313 0.0376994 0)
(10.1361 0.0340015 0)
(10.0004 0.00814064 0)
(10.006 0.0246996 0)
(10.0171 0.0348615 0)
(10.0283 0.0404941 0)
(10.0382 0.0445563 0)
(10.0476 0.047252 0)
(10.0567 0.0485101 0)
(10.0653 0.0488015 0)
(10.0732 0.0485382 0)
(10.0806 0.047886 0)
(10.0876 0.0469119 0)
(10.0942 0.0456566 0)
(10.1006 0.0441363 0)
(10.1067 0.0423314 0)
(10.1124 0.0401985 0)
(10.1179 0.0376815 0)
(10.1229 0.0347421 0)
(10.1274 0.0314028 0)
(10.0004 0.00720452 0)
(10.0052 0.0215037 0)
(10.0146 0.0312414 0)
(10.0248 0.0369058 0)
(10.0341 0.0407856 0)
(10.043 0.0433935 0)
(10.0517 0.0447335 0)
(10.06 0.0451475 0)
(10.0676 0.0449828 0)
(10.0748 0.0444041 0)
(10.0816 0.0434834 0)
(10.0881 0.0422641 0)
(10.0943 0.040769 0)
(10.1001 0.0389919 0)
(10.1057 0.0369114 0)
(10.1109 0.0345018 0)
(10.1156 0.03176 0)
(10.1198 0.0287385 0)
(10.0004 0.00636479 0)
(10.0045 0.0187277 0)
(10.0125 0.0277149 0)
(10.0216 0.0332374 0)
(10.0304 0.0369645 0)
(10.0388 0.0394945 0)
(10.047 0.040885 0)
(10.0549 0.0413863 0)
(10.0624 0.041294 0)
(10.0694 0.0407728 0)
(10.076 0.0398995 0)
(10.0823 0.0387204 0)
(10.0883 0.0372638 0)
(10.094 0.0355364 0)
(10.0993 0.0335346 0)
(10.1043 0.0312563 0)
(10.1088 0.0287183 0)
(10.1128 0.0259863 0)
(10.0004 0.00557417 0)
(10.0039 0.0162281 0)
(10.0107 0.0243481 0)
(10.0189 0.0296204 0)
(10.027 0.0331746 0)
(10.0349 0.0355847 0)
(10.0427 0.0369637 0)
(10.0502 0.0375071 0)
(10.0574 0.037462 0)
(10.0642 0.0369854 0)
(10.0706 0.0361567 0)
(10.0768 0.0350238 0)
(10.0826 0.0336196 0)
(10.088 0.0319611 0)
(10.0932 0.0300587 0)
(10.0979 0.0279264 0)
(10.1022 0.0255917 0)
(10.1061 0.0231241 0)
(10.0003 0.00486862 0)
(10.0034 0.0141251 0)
(10.0093 0.0214187 0)
(10.0167 0.0263667 0)
(10.0242 0.0297177 0)
(10.0317 0.031981 0)
(10.039 0.0333063 0)
(10.0462 0.0338556 0)
(10.0531 0.0338344 0)
(10.0597 0.0333878 0)
(10.0659 0.0325956 0)
(10.0719 0.0315072 0)
(10.0775 0.0301589 0)
(10.0828 0.0285753 0)
(10.0877 0.0267761 0)
(10.0923 0.0247846 0)
(10.0965 0.0226326 0)
(10.1003 0.0203887 0)
(10.0003 0.00420686 0)
(10.003 0.0121975 0)
(10.0082 0.0186525 0)
(10.0148 0.0231942 0)
(10.0217 0.0263032 0)
(10.0287 0.0283966 0)
(10.0357 0.0296383 0)
(10.0426 0.0301679 0)
(10.0492 0.0301548 0)
(10.0555 0.0297293 0)
(10.0615 0.02897 0)
(10.0673 0.0279273 0)
(10.0727 0.0266399 0)
(10.0778 0.0251375 0)
(10.0825 0.0234463 0)
(10.087 0.0215952 0)
(10.091 0.0196165 0)
(10.0947 0.0175776 0)
(10.0003 0.0035174 0)
(10.0026 0.0101882 0)
(10.0071 0.0156846 0)
(10.0129 0.0196817 0)
(10.0193 0.0224539 0)
(10.0258 0.0243129 0)
(10.0323 0.0254182 0)
(10.0388 0.0258899 0)
(10.0451 0.0258622 0)
(10.0511 0.025447 0)
(10.0569 0.0247187 0)
(10.0624 0.0237276 0)
(10.0676 0.0225135 0)
(10.0725 0.0211093 0)
(10.077 0.0195449 0)
(10.0813 0.0178519 0)
(10.0851 0.0160613 0)
(10.0887 0.014236 0)
(10.0002 0.00279655 0)
(10.0022 0.00809344 0)
(10.0061 0.012526 0)
(10.0112 0.0158376 0)
(10.0169 0.0181606 0)
(10.0229 0.0197051 0)
(10.029 0.0206089 0)
(10.035 0.0209723 0)
(10.041 0.0208977 0)
(10.0467 0.020476 0)
(10.0522 0.0197736 0)
(10.0574 0.0188384 0)
(10.0623 0.017709 0)
(10.067 0.0164189 0)
(10.0714 0.0149986 0)
(10.0754 0.0134794 0)
(10.0791 0.0118886 0)
(10.0826 0.0102827 0)
(10.0002 0.00204474 0)
(10.0019 0.00591646 0)
(10.0052 0.00918756 0)
(10.0097 0.0116714 0)
(10.0148 0.0134169 0)
(10.0203 0.0145497 0)
(10.0259 0.0151731 0)
(10.0315 0.0153649 0)
(10.037 0.0151995 0)
(10.0424 0.0147453 0)
(10.0476 0.014057 0)
(10.0525 0.0131767 0)
(10.0572 0.0121389 0)
(10.0617 0.0109742 0)
(10.0658 0.00971075 0)
(10.0697 0.008376 0)
(10.0733 0.00699238 0)
(10.0766 0.00560829 0)
(10.0002 0.00126067 0)
(10.0016 0.00364583 0)
(10.0045 0.00565602 0)
(10.0084 0.00717108 0)
(10.013 0.00820098 0)
(10.018 0.00880998 0)
(10.0231 0.00906182 0)
(10.0284 0.00900827 0)
(10.0335 0.0086979 0)
(10.0386 0.00817646 0)
(10.0435 0.00748316 0)
(10.0482 0.00664986 0)
(10.0526 0.00570382 0)
(10.0568 0.00466924 0)
(10.0608 0.00356851 0)
(10.0645 0.00242288 0)
(10.0679 0.00124865 0)
(10.0711 8.5029e-05 0)
(10.0002 0.000429204 0)
(10.0014 0.00123149 0)
(10.004 0.00186009 0)
(10.0075 0.00225753 0)
(10.0117 0.00242358 0)
(10.0163 0.00238133 0)
(10.0211 0.00215651 0)
(10.026 0.00177248 0)
(10.0309 0.00125259 0)
(10.0357 0.000619525 0)
(10.0403 -0.000106485 0)
(10.0448 -0.000907856 0)
(10.049 -0.00176881 0)
(10.0531 -0.0026746 0)
(10.0569 -0.00361148 0)
(10.0604 -0.00456596 0)
(10.0637 -0.0055289 0)
(10.0668 -0.00647035 0)
(10.0001 -0.000492094 0)
(10.0014 -0.0014483 0)
(10.0037 -0.00237588 0)
(10.0071 -0.00326695 0)
(10.0112 -0.00411697 0)
(10.0156 -0.00493697 0)
(10.0202 -0.00574129 0)
(10.0249 -0.00653786 0)
(10.0296 -0.00732935 0)
(10.0343 -0.00811791 0)
(10.0388 -0.00890528 0)
(10.0431 -0.00969218 0)
(10.0472 -0.0104777 0)
(10.0511 -0.0112598 0)
(10.0548 -0.0120359 0)
(10.0583 -0.0128022 0)
(10.0616 -0.0135573 0)
(10.0646 -0.014282 0)
(10.0002 -0.00136368 0)
(10.0014 -0.00399408 0)
(10.0039 -0.00641227 0)
(10.0075 -0.00852935 0)
(10.0117 -0.0103322 0)
(10.0162 -0.0118755 0)
(10.021 -0.0132156 0)
(10.0258 -0.0143873 0)
(10.0305 -0.0154191 0)
(10.0352 -0.01634 0)
(10.0397 -0.0171754 0)
(10.0441 -0.0179434 0)
(10.0482 -0.0186568 0)
(10.0521 -0.0193256 0)
(10.0558 -0.0199571 0)
(10.0593 -0.020556 0)
(10.0625 -0.0211274 0)
(10.0656 -0.0216602 0)
(10.0002 -0.00210199 0)
(10.0016 -0.00618585 0)
(10.0043 -0.00990398 0)
(10.0083 -0.0130248 0)
(10.0128 -0.0155549 0)
(10.0177 -0.0176442 0)
(10.0227 -0.0193912 0)
(10.0277 -0.0208359 0)
(10.0326 -0.0220236 0)
(10.0374 -0.023012 0)
(10.0421 -0.0238503 0)
(10.0465 -0.0245729 0)
(10.0507 -0.0252053 0)
(10.0547 -0.025767 0)
(10.0584 -0.0262737 0)
(10.0619 -0.026736 0)
(10.0652 -0.0271632 0)
(10.0683 -0.0275506 0)
(10.0002 -0.00278418 0)
(10.0017 -0.00831518 0)
(10.0049 -0.0133634 0)
(10.0094 -0.0173973 0)
(10.0145 -0.0204976 0)
(10.0197 -0.0229962 0)
(10.025 -0.0250468 0)
(10.0304 -0.0266896 0)
(10.0356 -0.0279855 0)
(10.0406 -0.0290128 0)
(10.0454 -0.0298338 0)
(10.05 -0.0304935 0)
(10.0543 -0.0310282 0)
(10.0583 -0.0314686 0)
(10.0621 -0.031838 0)
(10.0656 -0.0321533 0)
(10.069 -0.0324271 0)
(10.072 -0.0326585 0)
(10.0001 -0.00339106 0)
(10.0017 -0.0104201 0)
(10.0055 -0.0168076 0)
(10.0109 -0.0216669 0)
(10.0166 -0.0253074 0)
(10.0222 -0.0281849 0)
(10.0279 -0.030427 0)
(10.0336 -0.0321185 0)
(10.0391 -0.0334032 0)
(10.0444 -0.0343991 0)
(10.0493 -0.0351716 0)
(10.054 -0.035765 0)
(10.0585 -0.0362198 0)
(10.0626 -0.0365714 0)
(10.0665 -0.0368462 0)
(10.0701 -0.0370626 0)
(10.0735 -0.0372356 0)
(10.0766 -0.0373698 0)
(10.0001 -0.00387822 0)
(10.0016 -0.012908 0)
(10.0061 -0.0203491 0)
(10.0124 -0.0254247 0)
(10.0188 -0.0294962 0)
(10.025 -0.0329735 0)
(10.0311 -0.0355889 0)
(10.0372 -0.0373726 0)
(10.0429 -0.0385901 0)
(10.0484 -0.0394424 0)
(10.0536 -0.0400271 0)
(10.0584 -0.0404098 0)
(10.063 -0.0406489 0)
(10.0672 -0.0407923 0)
(10.0712 -0.0408724 0)
(10.0749 -0.040911 0)
(10.0783 -0.0409213 0)
(10.0815 -0.0408993 0)
(9.9998 -0.00355423 0)
(10.0011 -0.0165633 0)
(10.0069 -0.0255434 0)
(10.0141 -0.0297272 0)
(10.0207 -0.0330591 0)
(10.0272 -0.0365252 0)
(10.0341 -0.0394687 0)
(10.0408 -0.0416578 0)
(10.0471 -0.0432518 0)
(10.053 -0.044398 0)
(10.0585 -0.0451765 0)
(10.0637 -0.0456622 0)
(10.0685 -0.0459317 0)
(10.073 -0.0460494 0)
(10.0771 -0.0460629 0)
(10.081 -0.0460056 0)
(10.0846 -0.0459031 0)
(10.088 -0.0457649 0)
(9.99829 -3.55038e-06 0)
(9.99797 -0.0176292 0)
(10.0068 -0.0315201 0)
(10.0162 -0.0376127 0)
(10.0233 -0.0403183 0)
(10.0302 -0.0418784 0)
(10.0378 -0.0428434 0)
(10.0454 -0.0435478 0)
(10.0525 -0.0441583 0)
(10.0592 -0.0446826 0)
(10.0654 -0.045088 0)
(10.0713 -0.0453859 0)
(10.0767 -0.0455985 0)
(10.0817 -0.045753 0)
(10.0863 -0.0458641 0)
(10.0906 -0.045948 0)
(10.0945 -0.0460101 0)
(10.0981 -0.0460178 0)
(9.99413 0.00277383 0)
(9.98996 -0.00760742 0)
(10.0032 -0.0228716 0)
(10.0185 -0.0396976 0)
(10.0302 -0.0530948 0)
(10.0403 -0.0608727 0)
(10.05 -0.0644157 0)
(10.0592 -0.0656706 0)
(10.0676 -0.065766 0)
(10.0754 -0.065149 0)
(10.0827 -0.0641025 0)
(10.0894 -0.0628166 0)
(10.0956 -0.0614539 0)
(10.1012 -0.0600944 0)
(10.1063 -0.0588034 0)
(10.1109 -0.0576103 0)
(10.1151 -0.0565407 0)
(10.119 -0.0555471 0)
(9.9942 -0.0305092 0)
(9.99525 -0.0134624 0)
(10.0085 0.0215101 0)
(10.0272 0.0320038 0)
(10.0469 0.0241243 0)
(10.0667 0.0115768 0)
(10.0849 -0.000146814 0)
(10.1006 -0.0103685 0)
(10.1138 -0.0190146 0)
(10.1249 -0.0260939 0)
(10.1341 -0.0317015 0)
(10.1415 -0.0360804 0)
(10.1473 -0.0394615 0)
(10.1516 -0.0420624 0)
(10.1546 -0.0440464 0)
(10.1564 -0.0455827 0)
(10.1574 -0.0468006 0)
(10.1573 -0.0478456 0)
(10.0368 -0.209414 0)
(10.1083 -0.365902 0)
(10.1423 -0.352753 0)
(10.1567 -0.298044 0)
(10.1696 -0.247635 0)
(10.1819 -0.206807 0)
(10.1884 -0.174374 0)
(10.1866 -0.149015 0)
(10.1773 -0.129302 0)
(10.1618 -0.113783 0)
(10.1412 -0.101391 0)
(10.1166 -0.0913663 0)
(10.0891 -0.0831779 0)
(10.0594 -0.0764202 0)
(10.0284 -0.0708126 0)
(9.99644 -0.0661749 0)
(9.96416 -0.0623571 0)
(9.93221 -0.0596599 0)
(9.92866 0.765531 0)
(9.83923 0.742067 0)
(9.7053 0.524426 0)
(9.52629 0.348775 0)
(9.33176 0.22768 0)
(9.14048 0.146973 0)
(8.95862 0.0935676 0)
(8.78865 0.0579714 0)
(8.63199 0.0341045 0)
(8.48925 0.0180853 0)
(8.3598 0.00741835 0)
(8.24285 0.000438519 0)
(8.13721 -0.00411123 0)
(8.04182 -0.00696677 0)
(7.95556 -0.00864671 0)
(7.87747 -0.00958674 0)
(7.80618 -0.010071 0)
(7.74133 -0.0106845 0)
(0.00961188 -0.0203111 -6.486e-19)
(0.0282613 -0.0312742 4.32801e-19)
(0.0461098 -0.0297512 0)
(0.0601331 -0.0222003 0)
(0.0678591 -0.0123129 0)
(0.0688948 -0.00232401 -2.68318e-19)
(0.0637778 0.00631282 0)
(0.0540842 0.0129209 0)
(0.0409282 0.0175889 0)
(0.0252217 0.0207917 0)
(0.00766109 0.0229497 3.15283e-19)
(-0.0112788 0.0241954 0)
(-0.0314395 0.02485 0)
(-0.0528038 0.0253982 0)
(-0.0753482 0.0260435 0)
(-0.0991037 0.0268344 1.97566e-19)
(-0.12411 0.0277506 0)
(-0.150391 0.0287555 0)
(-0.177948 0.0298026 0)
(-0.206753 0.030851 0)
(-0.236754 0.0318591 0)
(-0.267876 0.0327963 0)
(-0.300029 0.033633 0)
(-0.33311 0.0343517 1.04498e-19)
(-0.367007 0.0349322 -9.80683e-20)
(-0.401604 0.0353656 9.23306e-20)
(-0.436782 0.0356527 8.72027e-20)
(-0.472423 0.0358054 0)
(-0.508417 0.0358377 0)
(-0.544659 0.0357742 -7.47511e-20)
(-0.581048 0.0356546 -7.13846e-20)
(-0.617583 0.0355006 0)
(-0.654223 0.0353052 0)
(-0.69093 0.03508 -6.30095e-20)
(-0.727677 0.034828 0)
(-0.764445 0.0345586 0)
(-0.801221 0.034278 5.65738e-20)
(-0.837997 0.0339964 0)
(-0.874772 0.0337195 5.30612e-20)
(-0.911548 0.0334507 1.02976e-19)
(-0.948329 0.0331908 0)
(-0.985121 0.0329434 0)
(-1.02193 0.0327089 0)
(-1.05877 0.0324886 0)
(-1.09563 0.03228 0)
(-1.13254 0.0320806 8.78491e-20)
(-1.1695 0.0318849 8.58068e-20)
(-1.20651 0.0316946 8.38703e-20)
(-1.24357 0.0315092 0)
(-1.28069 0.0313283 -8.02818e-20)
(-1.31787 0.0311502 0)
(-1.3551 0.0309742 7.70217e-20)
(-1.3924 0.0307987 7.54991e-20)
(-1.42974 0.0306227 0)
(-1.46713 0.0304442 0)
(-1.50456 0.0302615 0)
(-1.54201 0.0300735 7.00027e-20)
(-1.57948 0.0298789 0)
(-1.61694 0.0296765 0)
(-1.65439 0.0294645 0)
(-1.69181 0.0292433 0)
(-1.72918 0.0290113 0)
(-1.76647 0.0287684 0)
(-1.80367 0.0285127 0)
(-1.84076 0.028245 0)
(-1.8777 0.0279633 -6.01183e-20)
(-1.91449 0.0276695 0)
(-1.95108 0.0273614 0)
(-1.98746 0.0270414 5.73318e-20)
(-2.0236 0.0267071 5.6442e-20)
(-2.05946 0.0263611 0)
(-2.09503 0.0260009 -5.47117e-20)
(-2.13026 0.02563 5.38679e-20)
(-2.16514 0.0252463 0)
(-2.19964 0.0248552 -5.22152e-20)
(-2.23371 0.0244549 0)
(-2.26732 0.024052 0)
(-2.30044 0.0236438 4.9806e-20)
(-2.333 0.0232326 0)
(-2.36499 0.0228079 -4.8237e-20)
(-2.39634 0.0223688 0)
(-2.42701 0.0219038 4.66912e-20)
(-2.45694 0.0214104 4.5925e-20)
(-2.48608 0.0208712 4.51616e-20)
(-2.51438 0.0202817 8.88001e-20)
(-2.54175 0.019623 -8.72767e-20)
(-2.56811 0.0188914 0)
(-2.59338 0.0180703 0)
(-2.61747 0.0171589 0)
(-2.64024 0.016157 -8.11172e-20)
(-2.66163 0.015062 -7.9552e-20)
(-2.68151 0.013887 7.79771e-20)
(-2.69973 0.0126394 0)
(-2.71611 0.0113316 -7.48017e-20)
(-2.73046 0.0099627 -7.32018e-20)
(-2.74253 0.00853221 -7.15913e-20)
(-2.75209 0.00703819 0)
(-2.75888 0.00549219 0)
(-2.76264 0.00397549 0)
(-2.7637 0.00253041 -6.47693e-20)
(-2.7621 0.00108028 0)
(-2.75772 -0.000431204 0)
(-2.75043 -0.0020249 5.88767e-20)
(-2.74009 -0.00371414 0)
(-2.72654 -0.00550124 0)
(-2.70961 -0.00739664 5.20002e-20)
(-2.68914 -0.00939857 0)
(-2.66499 -0.0115173 0)
(-2.63701 -0.0137491 -4.36503e-20)
(-2.60507 -0.0161021 -4.04317e-20)
(-2.56906 -0.0185688 0)
(-2.52887 -0.0211524 3.31734e-20)
(-2.48442 -0.0238417 0)
(-2.43566 -0.0266331 -2.46041e-20)
(-2.38254 -0.0295107 0)
(-2.32505 -0.0324628 -1.4435e-20)
(-2.26323 -0.0354714 -8.65282e-21)
(-2.19711 -0.0384855 0)
(-2.12679 -0.0415218 0)
(-2.05234 -0.0445426 0)
(-1.97396 -0.0474729 0)
(-1.89183 -0.0503532 0)
(-1.80616 -0.0531304 0)
(-1.71728 -0.0557554 0)
(-1.62544 -0.0582364 5.95531e-20)
(-1.53099 -0.0605232 -7.14363e-20)
(-1.43429 -0.0625975 0)
(-1.33572 -0.064433 0)
(-1.23568 -0.0660324 0)
(-1.13457 -0.0673698 0)
(-1.0328 -0.0684486 -2.90625e-19)
(-0.930788 -0.0692562 0)
(-0.828932 -0.0698075 3.65726e-19)
(-0.727621 -0.0700981 -4.07428e-19)
(-0.627216 -0.0701505 0)
(-0.528066 -0.0699669 0)
(-0.430477 -0.0695897 0)
(-0.334756 -0.0690063 6.08414e-19)
(-0.241137 -0.0682321 6.69119e-19)
(-0.149804 -0.0672801 0)
(-0.0608102 -0.0659684 7.96932e-19)
(0.0269715 -0.0636738 8.10649e-19)
(0.113007 -0.0604683 -7.86131e-19)
(0.195502 -0.0569405 0)
(0.274386 -0.0534381 0)
(0.349471 -0.0500432 -7.30363e-19)
(0.420712 -0.0467839 0)
(0.488141 -0.0436707 0)
(0.551822 -0.0407061 0)
(0.611843 -0.0378891 0)
(0.668305 -0.0352171 6.72165e-19)
(0.721324 -0.0326861 6.63666e-19)
(0.771023 -0.0302925 0)
(0.817535 -0.0280326 6.48814e-19)
(0.860997 -0.0259026 0)
(0.901552 -0.0238989 0)
(0.93935 -0.0220182 6.30756e-19)
(0.974544 -0.0202573 0)
(1.00729 -0.0186129 6.20842e-19)
(1.03775 -0.0170819 0)
(1.06608 -0.0156619 0)
(1.09246 -0.0143513 6.08223e-19)
(1.11705 -0.0131465 0)
(1.14002 -0.0120433 6.00856e-19)
(1.16155 -0.0110376 0)
(1.1818 -0.0101262 0)
(1.20095 -0.00930649 0)
(1.21916 -0.00857494 -5.87219e-19)
(1.23659 -0.00792588 0)
(1.25338 -0.00735255 5.8052e-19)
(1.26967 -0.00684456 0)
(1.28555 -0.00638783 0)
(1.30108 -0.00595944 0)
(1.31622 -0.00552288 0)
(1.33084 -0.00500879 0)
(1.34429 -0.0042822 0)
(1.35603 -0.00303442 0)
(1.36119 -0.000235653 -1.11836e-18)
(1.36189 0.00600717 0)
(1.30248 0.020766 0)
(0.00982266 -0.0593489 1.33356e-18)
(0.0200156 -0.058354 -5.90079e-19)
(0.0221255 -0.041207 0)
(0.0197987 -0.0225066 1.89883e-19)
(0.0139131 -0.00436377 0)
(0.00507949 0.0121706 7.75159e-20)
(-0.00635308 0.0263384 -1.46854e-19)
(-0.0204682 0.0378298 -1.39811e-19)
(-0.0372214 0.0468094 0)
(-0.0565228 0.0537119 -1.28464e-19)
(-0.0782272 0.0590481 -6.17379e-20)
(-0.102071 0.0632906 0)
(-0.127722 0.0668503 0)
(-0.154939 0.0700482 0)
(-0.183565 0.0730732 0)
(-0.213459 0.0760058 -5.0329e-20)
(-0.24449 0.0788497 0)
(-0.276536 0.0815712 9.2582e-20)
(-0.30948 0.0841185 0)
(-0.343205 0.0864417 0)
(-0.377597 0.0884974 -8.22466e-20)
(-0.41254 0.0902594 0)
(-0.447926 0.0917126 7.62829e-20)
(-0.483649 0.0928523 -3.68915e-20)
(-0.519614 0.093676 3.5615e-20)
(-0.555742 0.0941877 -3.44226e-20)
(-0.591964 0.0944065 -3.3311e-20)
(-0.628225 0.0943676 0)
(-0.664484 0.0941114 0)
(-0.700706 0.0936846 3.04197e-20)
(-0.736861 0.0931341 -2.939e-20)
(-0.772926 0.0924957 0)
(-0.808879 0.0917885 0)
(-0.844711 0.0910329 2.74029e-20)
(-0.880419 0.0902445 0)
(-0.916004 0.0894391 0)
(-0.951473 0.0886275 -2.5615e-20)
(-0.986834 0.0878202 0)
(-1.02209 0.0870244 2.44089e-20)
(-1.05725 0.0862466 -4.82555e-20)
(-1.09233 0.0854888 0)
(-1.12733 0.0847545 0)
(-1.16225 0.0840439 -9.10456e-20)
(-1.19711 0.0833571 -8.94957e-20)
(-1.23191 0.0826916 -8.80056e-20)
(-1.26665 0.0820462 4.31022e-20)
(-1.30135 0.0814169 -4.27786e-20)
(-1.336 0.0808004 -1.25985e-19)
(-1.37061 0.0801928 8.25954e-20)
(-1.40517 0.0795912 4.0864e-20)
(-1.4397 0.078991 0)
(-1.47417 0.0783891 -3.96968e-20)
(-1.50858 0.0777817 3.87872e-20)
(-1.54293 0.0771656 0)
(-1.5772 0.0765369 0)
(-1.61139 0.075892 0)
(-1.64547 0.075228 -3.70703e-20)
(-1.67943 0.074542 0)
(-1.71326 0.0738314 7.18836e-20)
(-1.74694 0.0730932 0)
(-1.78044 0.0723263 7.00509e-20)
(-1.81375 0.0715284 0)
(-1.84685 0.0706988 -6.82853e-20)
(-1.87972 0.0698346 0)
(-1.91232 0.0689356 6.65747e-20)
(-1.94465 0.0679992 -3.27125e-20)
(-1.97667 0.0670266 0)
(-2.00836 0.0660155 -6.40883e-20)
(-2.03969 0.0649677 -3.17874e-20)
(-2.07063 0.0638805 -3.13822e-20)
(-2.10117 0.0627556 0)
(-2.13126 0.0615892 -3.02931e-20)
(-2.16087 0.0603823 -3.01795e-20)
(-2.18998 0.0591295 0)
(-2.21855 0.0578318 2.93828e-20)
(-2.24654 0.0564831 -5.77035e-20)
(-2.27392 0.0550868 0)
(-2.30064 0.0536386 -2.81858e-20)
(-2.32667 0.0521429 0)
(-2.35196 0.0505932 8.19031e-20)
(-2.37647 0.048993 0)
(-2.40014 0.0473342 -7.94835e-20)
(-2.42292 0.0456186 -2.61667e-20)
(-2.44475 0.0438341 2.55229e-20)
(-2.46557 0.0419817 5.02246e-20)
(-2.48532 0.0400467 -4.93964e-20)
(-2.50391 0.0380256 0)
(-2.52126 0.0358974 0)
(-2.53728 0.0336521 0)
(-2.55188 0.0312707 1.3874e-19)
(-2.56499 0.0287346 4.54668e-20)
(-2.57654 0.0260302 -4.45447e-20)
(-2.58644 0.0231439 0)
(-2.59462 0.0200723 -4.23982e-20)
(-2.60102 0.0168082 4.16918e-20)
(-2.60562 0.0133604 4.07104e-20)
(-2.60844 0.00975308 0)
(-2.60949 0.00604532 0)
(-2.6088 0.00231421 0)
(-2.60594 -0.0014272 3.64594e-20)
(-2.60055 -0.00524969 0)
(-2.59245 -0.00919516 -6.80535e-20)
(-2.58147 -0.0132806 -9.8379e-20)
(-2.56745 -0.0175105 6.29692e-20)
(-2.55024 -0.0218785 0)
(-2.52966 -0.0263813 2.87439e-20)
(-2.50556 -0.0310049 0)
(-2.4778 -0.035744 5.12104e-20)
(-2.44623 -0.0405801 -2.40767e-20)
(-2.41073 -0.0455036 -2.2335e-20)
(-2.37118 -0.0504897 0)
(-2.32747 -0.0555224 -5.43464e-20)
(-2.27953 -0.0605705 3.21177e-20)
(-2.22729 -0.0656104 1.33369e-20)
(-2.17073 -0.0706052 0)
(-2.10984 -0.0755272 8.12023e-21)
(-2.04464 -0.0803408 1.70118e-20)
(-1.97521 -0.0850258 0)
(-1.90164 -0.0895361 -5.26684e-22)
(-1.82408 -0.0938354 -7.23921e-21)
(-1.74271 -0.0978489 -1.43407e-20)
(-1.65772 -0.101499 0)
(-1.56937 -0.104822 0)
(-1.47801 -0.107802 0)
(-1.38393 -0.110382 2.20292e-20)
(-1.28752 -0.112529 2.90678e-20)
(-1.18916 -0.114231 0)
(-1.08927 -0.115469 7.43714e-20)
(-0.988256 -0.116245 8.42265e-20)
(-0.886561 -0.116547 0)
(-0.784607 -0.116395 1.07712e-19)
(-0.682814 -0.115794 2.30304e-19)
(-0.581586 -0.114776 -1.2895e-19)
(-0.48131 -0.113361 -1.33449e-19)
(-0.382345 -0.111591 0)
(-0.285031 -0.109489 0)
(-0.189647 -0.107095 0)
(-0.0964894 -0.104455 -1.835e-19)
(-0.00543955 -0.101774 1.85843e-19)
(0.0831974 -0.0991224 3.8761e-19)
(0.168785 -0.0962453 -2.00734e-19)
(0.250817 -0.092609 1.99744e-19)
(0.329128 -0.0881476 2.08712e-19)
(0.403975 -0.0833454 0)
(0.475544 -0.078495 0)
(0.543803 -0.073714 -2.15213e-19)
(0.608731 -0.0690587 0)
(0.670337 -0.0645631 0)
(0.728657 -0.0602431 4.51998e-19)
(0.783748 -0.0561113 0)
(0.835685 -0.0521722 2.29326e-19)
(0.884559 -0.0484305 -2.34211e-19)
(0.930473 -0.044887 0)
(0.97354 -0.0415429 2.35401e-19)
(1.01388 -0.0383967 0)
(1.05164 -0.0354477 0)
(1.08694 -0.0326941 -2.41802e-19)
(1.11993 -0.0301341 4.84171e-19)
(1.15076 -0.0277656 -2.4388e-19)
(1.1796 -0.0255855 0)
(1.20659 -0.0235917 0)
(1.23191 -0.0217811 2.44991e-19)
(1.25571 -0.0201507 0)
(1.27817 -0.0186954 2.46134e-19)
(1.29945 -0.0174118 0)
(1.31973 -0.0162938 0)
(1.33916 -0.0153347 0)
(1.35792 -0.0145242 2.47605e-19)
(1.37615 -0.0138517 0)
(1.394 -0.0133015 -2.47262e-19)
(1.41159 -0.0128536 0)
(1.42903 -0.0124759 0)
(1.44636 -0.0121216 4.91799e-19)
(1.46357 -0.0117113 -4.90818e-19)
(1.48053 -0.0111012 0)
(1.49679 -0.0100181 0)
(1.51197 -0.00780369 0)
(1.52318 -0.00303542 1.4694e-18)
(1.535 0.00808483 0)
(1.5279 0.032513 -9.99545e-19)
(0.000704724 -0.0761884 -1.11792e-21)
(-0.00127267 -0.0545282 5.76923e-19)
(-0.00897986 -0.0277528 0)
(-0.019575 -0.00325195 -2.40487e-19)
(-0.0321569 0.0188574 0)
(-0.0462529 0.0386405 0)
(-0.0617555 0.0560518 6.88661e-23)
(-0.0787526 0.0710393 7.51924e-20)
(-0.0973696 0.0836772 7.16282e-20)
(-0.117696 0.0942038 6.88952e-20)
(-0.139748 0.102968 0)
(-0.163458 0.110359 0)
(-0.188691 0.116728 -6.20912e-20)
(-0.215279 0.122345 -1.20202e-19)
(-0.243043 0.127395 1.1636e-19)
(-0.271808 0.131983 0)
(-0.301406 0.13615 1.09055e-19)
(-0.331689 0.139901 -5.28937e-20)
(-0.362527 0.143215 0)
(-0.393808 0.146071 9.91077e-20)
(-0.425432 0.148451 4.81321e-20)
(-0.457319 0.150344 -9.32041e-20)
(-0.489393 0.151751 -4.5315e-20)
(-0.52159 0.152689 0)
(-0.553853 0.153186 8.53119e-20)
(-0.586142 0.153281 8.2931e-20)
(-0.618436 0.153019 0)
(-0.650717 0.152452 7.85879e-20)
(-0.682973 0.151632 0)
(-0.715192 0.150612 7.47673e-20)
(-0.747365 0.149442 3.66018e-20)
(-0.77948 0.148161 0)
(-0.811532 0.146803 0)
(-0.843516 0.145398 0)
(-0.875433 0.143969 0)
(-0.907284 0.142535 0)
(-0.939073 0.141111 0)
(-0.970804 0.139709 6.34575e-20)
(-1.00248 0.138336 -9.36515e-20)
(-1.03411 0.136997 0)
(-1.06569 0.135694 0)
(-1.09724 0.134429 0)
(-1.12875 0.133202 1.93617e-22)
(-1.16022 0.132009 5.78534e-20)
(-1.19167 0.130847 1.13855e-19)
(-1.22309 0.129712 -1.12258e-19)
(-1.25449 0.128601 -5.52602e-20)
(-1.28586 0.127508 5.47149e-20)
(-1.3172 0.126426 -1.99158e-22)
(-1.34851 0.125349 5.3099e-20)
(-1.37978 0.124271 0)
(-1.41101 0.123186 5.17631e-20)
(-1.44219 0.122087 -1.99552e-22)
(-1.47331 0.120971 0)
(-1.50436 0.11983 0)
(-1.53533 0.118661 -4.92832e-20)
(-1.56619 0.117458 0)
(-1.59695 0.116218 0)
(-1.62758 0.114938 4.73545e-20)
(-1.65806 0.113612 9.3981e-20)
(-1.68837 0.11224 -4.66315e-20)
(-1.7185 0.110818 0)
(-1.74843 0.109345 4.55441e-20)
(-1.77813 0.107818 0)
(-1.80758 0.106236 4.41047e-20)
(-1.83677 0.104597 4.39489e-20)
(-1.86566 0.1029 -8.64836e-20)
(-1.89424 0.101144 -4.25413e-20)
(-1.92247 0.0993286 0)
(-1.95033 0.0974527 8.33688e-20)
(-1.9778 0.0955158 0)
(-2.00484 0.0935152 1.2212e-19)
(-2.03143 0.0914501 8.02637e-20)
(-2.05753 0.0893169 7.92255e-20)
(-2.08312 0.0871138 -7.81838e-20)
(-2.10817 0.0848365 1.15865e-19)
(-2.13263 0.0824838 0)
(-2.15647 0.0800507 0)
(-2.17965 0.077535 -7.39603e-20)
(-2.20214 0.0749309 -1.09473e-19)
(-2.22388 0.0722359 0)
(-2.24484 0.0694426 3.54921e-20)
(-2.26496 0.0665466 0)
(-2.28419 0.0635384 -1.02864e-19)
(-2.30249 0.0604126 -2.6047e-22)
(-2.31978 0.0571577 2.55266e-22)
(-2.336 0.0537656 6.50582e-20)
(-2.35109 0.0502218 0)
(-2.36496 0.0465151 -6.26903e-20)
(-2.37756 0.0426312 -2.19995e-22)
(-2.38881 0.0385572 0)
(-2.39866 0.034284 0)
(-2.40702 0.0298102 0)
(-2.41383 0.0251378 5.65943e-20)
(-2.419 0.0202734 0)
(-2.42245 0.0152245 0)
(-2.42407 0.00999706 0)
(-2.42374 0.00458614 0)
(-2.4213 -0.00103798 0)
(-2.41655 -0.00689681 4.78718e-20)
(-2.40933 -0.0129917 0)
(-2.39946 -0.0193212 4.46269e-20)
(-2.38679 -0.0258857 4.28887e-20)
(-2.37116 -0.0326784 -4.10816e-20)
(-2.35241 -0.0396909 0)
(-2.33039 -0.0469082 -3.72292e-20)
(-2.30493 -0.054315 0)
(-2.27589 -0.0618908 -3.30024e-20)
(-2.24314 -0.0696129 3.07256e-20)
(-2.20655 -0.0774525 8.56095e-20)
(-2.166 -0.0853765 0)
(-2.12141 -0.0933458 7.02433e-20)
(-2.07268 -0.101316 2.13095e-20)
(-2.01977 -0.109237 0)
(-1.96265 -0.117053 2.96201e-20)
(-1.90133 -0.124707 2.31098e-20)
(-1.83584 -0.132137 -2.35287e-20)
(-1.76626 -0.139288 0)
(-1.6927 -0.146094 3.23098e-22)
(-1.61533 -0.152501 4.41583e-21)
(-1.53434 -0.158416 2.37146e-20)
(-1.44993 -0.163731 0)
(-1.36239 -0.168428 0)
(-1.27205 -0.172503 0)
(-1.17926 -0.175887 2.4492e-20)
(-1.08439 -0.178538 0)
(-0.987845 -0.180429 0)
(-0.890028 -0.181547 -4.30732e-20)
(-0.791366 -0.181892 -4.8431e-20)
(-0.692286 -0.181473 0)
(-0.593206 -0.180314 0)
(-0.494533 -0.178448 -1.29493e-19)
(-0.39666 -0.175922 0)
(-0.299955 -0.172786 1.51249e-19)
(-0.204753 -0.169096 1.58278e-19)
(-0.11137 -0.164918 0)
(-0.0199807 -0.160376 0)
(0.0691368 -0.155557 -1.86026e-19)
(0.155604 -0.150429 -3.44688e-21)
(0.239119 -0.144973 -3.32187e-21)
(0.319481 -0.139235 0)
(0.396535 -0.133234 -4.25612e-19)
(0.470245 -0.126945 0)
(0.540702 -0.120438 0)
(0.607964 -0.113869 0)
(0.672028 -0.107345 2.35084e-19)
(0.732901 -0.100935 0)
(0.790609 -0.0946882 -4.83379e-19)
(0.845199 -0.0886381 -2.4778e-19)
(0.896736 -0.0828095 0)
(0.945303 -0.0772194 -2.54934e-19)
(0.990995 -0.0718813 0)
(1.03392 -0.0668042 0)
(1.0742 -0.0619953 -7.88961e-19)
(1.11195 -0.0574586 5.3039e-19)
(1.14731 -0.0531974 0)
(1.18042 -0.0492136 5.39824e-19)
(1.21143 -0.0455076 -2.72955e-19)
(1.24049 -0.0420792 0)
(1.26775 -0.0389267 0)
(1.29338 -0.0360489 0)
(1.31753 -0.0334425 -8.36064e-19)
(1.34037 -0.0311042 0)
(1.36207 -0.0290277 -2.81256e-19)
(1.38278 -0.0272076 0)
(1.40268 -0.0256353 0)
(1.42193 -0.0243015 0)
(1.44068 -0.0231911 0)
(1.45909 -0.0222882 0)
(1.47728 -0.0215687 0)
(1.49539 -0.0210016 -5.67635e-19)
(1.51351 -0.0205382 0)
(1.5317 -0.020108 -2.83816e-19)
(1.54993 -0.0195935 8.50279e-19)
(1.56814 -0.018793 0)
(1.58598 -0.017334 0)
(1.60327 -0.0144475 -5.65982e-19)
(1.61822 -0.00867597 -5.67511e-19)
(1.63442 0.00319246 5.70668e-19)
(1.64216 0.0286926 5.78774e-19)
(-0.00844449 -0.0639515 -1.95333e-18)
(-0.0186163 -0.031273 -6.87282e-19)
(-0.0319945 -0.00047829 -2.53667e-19)
(-0.0475555 0.026555 -9.04423e-20)
(-0.0641146 0.0506836 0)
(-0.081266 0.0723551 1.29004e-19)
(-0.099063 0.0917275 -5.87954e-20)
(-0.117648 0.108855 0)
(-0.137162 0.123819 -5.22911e-20)
(-0.157717 0.136774 0)
(-0.179376 0.147938 9.65115e-20)
(-0.202142 0.157567 0)
(-0.225963 0.165908 4.51746e-20)
(-0.250743 0.173179 8.75368e-20)
(-0.276359 0.179547 -8.48485e-20)
(-0.30268 0.185128 0)
(-0.329577 0.189995 -7.9775e-20)
(-0.356935 0.194189 0)
(-0.384652 0.197733 0)
(-0.412643 0.200642 -7.28734e-20)
(-0.440837 0.202931 0)
(-0.469177 0.20462 4.61426e-23)
(-0.497621 0.205735 0)
(-0.526138 0.206313 0)
(-0.554706 0.206401 -4.64225e-23)
(-0.583311 0.206057 -6.16996e-20)
(-0.611941 0.205341 -6.01364e-20)
(-0.64059 0.20431 -5.8758e-20)
(-0.66925 0.20302 0)
(-0.697917 0.201526 -1.12245e-19)
(-0.726584 0.199876 0)
(-0.755247 0.198112 -5.378e-20)
(-0.783902 0.196273 0)
(-0.812547 0.194388 0)
(-0.84118 0.192484 5.07791e-20)
(-0.8698 0.19058 0)
(-0.898407 0.188693 -4.90367e-20)
(-0.927002 0.186836 -7.48623e-23)
(-0.955586 0.185015 9.49989e-20)
(-0.98416 0.183236 -9.34517e-20)
(-1.01273 0.181503 0)
(-1.04128 0.179816 0)
(-1.06984 0.178173 -4.46236e-20)
(-1.09839 0.176572 0)
(-1.12693 0.175008 -4.35849e-20)
(-1.15547 0.173474 4.30129e-20)
(-1.18401 0.171966 4.24604e-20)
(-1.21253 0.170474 0)
(-1.24104 0.168993 -4.1407e-20)
(-1.26953 0.167512 -4.09032e-20)
(-1.298 0.166025 8.06371e-20)
(-1.32644 0.164523 -3.99347e-20)
(-1.35483 0.163 -3.94677e-20)