/*--------------------------------*- C++ -*----------------------------------*\
| =========                 |                                                 |
| \\      /  F ield         | OpenFOAM: The Open Source CFD Toolbox           |
|  \\    /   O peration     | Version:  2212                                  |
|   \\  /    A nd           | Website:  www.openfoam.com                      |
|    \\/     M anipulation  |                                                 |
\*---------------------------------------------------------------------------*/
FoamFile
{
    version     2.0;
    format      ascii;
    arch        "LSB;label=32;scalar=64";
    class       volScalarField;
    location    "250";
    object      epsilon;
}
// * * * * * * * * * * * * * * * * * * * * * * * * * * * * * * * * * * * * * //

dimensions      [0 2 -3 0 0 0 0];

internalField   nonuniform List<scalar> 
12225
(
1085.71
2467.78
3645.43
4414.73
4812.14
4980.49
4975.3
4926.49
4840.67
4729.12
4620.67
4517.19
4425.48
4339.5
4268.99
4198.42
4150.85
4085.45
81.231
262.521
438.555
584.504
691.168
762.825
805.02
829.671
846.864
856.89
866.628
873.723
883.012
890.987
900.544
910.423
917.547
934.482
20.5772
51.1749
83.47
112.535
136.926
156.193
170.162
179.891
186.38
190.788
193.493
195.619
196.875
198.372
199.368
200.779
202.545
206.086
14.7578
21.8681
30.0198
38.5015
46.2164
53.0383
58.6228
63.2634
66.7563
69.6468
71.6137
73.3331
74.3206
75.3362
75.7617
76.3077
76.6671
77.4587
14.361
16.3335
18.4562
21.4873
24.4386
27.262
29.7364
31.9833
33.819
35.4796
36.7453
37.928
38.7445
39.5763
40.0561
40.6517
40.8454
41.475
14.6447
14.9541
15.4274
16.4563
17.6089
18.8289
19.9697
21.0769
22.0337
22.9483
23.6897
24.4159
24.9564
25.5278
25.8916
26.3546
26.5441
27.0022
14.7184
14.6387
14.6737
14.8757
15.2175
15.6834
16.1628
16.6724
17.1383
17.6109
18.0104
18.4208
18.7385
19.0882
19.3205
19.626
19.7608
20.0835
14.7545
14.5907
14.4691
14.4209
14.4418
14.5153
14.6476
14.8246
15.0022
15.2023
15.3792
15.5761
15.7326
15.9151
16.0396
16.2094
16.2878
16.4794
14.7641
14.5919
14.4345
14.3029
14.2031
14.1371
14.0973
14.0987
14.1107
14.1415
14.1782
14.2346
14.2793
14.3427
14.3851
14.4504
14.4806
14.5626
14.7656
14.5942
14.432
14.2828
14.1465
14.0296
13.9256
13.8437
13.7744
13.7224
13.6771
13.6482
13.6204
13.6063
13.5891
13.5839
13.5722
13.5818
14.7657
14.5945
14.4323
14.2806
14.137
14.0051
13.8816
13.7705
13.6679
13.5777
13.4938
13.4219
13.3537
13.2971
13.2406
13.1973
13.1473
13.1179
14.7657
14.5944
14.4322
14.2801
14.1357
14.0007
13.8728
13.754
13.6417
13.5385
13.4409
13.3523
13.2677
13.1922
13.1185
13.0549
12.9895
12.9368
14.7657
14.5941
14.4321
14.2796
14.1353
13.9995
13.8707
13.7496
13.6347
13.5271
13.4247
13.3294
13.2383
13.1542
13.0731
12.999
12.9266
12.8616
14.7657
14.594
14.4319
14.2792
14.1349
13.9987
13.8698
13.7481
13.6326
13.5236
13.4201
13.3224
13.2294
13.1417
13.0581
12.9795
12.9043
12.8337
14.7657
14.5938
14.4317
14.2789
14.1345
13.9981
13.8691
13.7471
13.6315
13.5221
13.4183
13.32
13.2265
13.1379
13.0536
12.9737
12.8975
12.8253
14.7657
14.5938
14.4316
14.2786
14.1341
13.9976
13.8685
13.7463
13.6306
13.5211
13.4171
13.3185
13.2249
13.136
13.0515
12.9713
12.8948
12.8222
14.7657
14.5937
14.4315
14.2784
14.1338
13.9972
13.868
13.7457
13.6299
13.5202
13.4162
13.3174
13.2237
13.1347
13.0501
12.9696
12.8931
12.8203
14.7657
14.5937
14.4314
14.2783
14.1336
13.9969
13.8677
13.7453
13.6294
13.5196
13.4155
13.3167
13.2228
13.1337
13.049
12.9685
12.8919
12.819
14.7657
14.5937
14.4314
14.2782
14.1336
13.9969
13.8675
13.7451
13.6292
13.5194
13.4152
13.3163
13.2224
13.1333
13.0485
12.968
12.8913
12.8184
14.7657
14.5937
14.4315
14.2783
14.1337
13.997
13.8677
13.7453
13.6294
13.5196
13.4154
13.3166
13.2227
13.1336
13.0489
12.9683
12.8917
12.8188
14.7657
14.5937
14.4316
14.2785
14.1339
13.9972
13.868
13.7457
13.63
13.5202
13.4163
13.3176
13.2241
13.1352
13.051
12.9708
12.8948
12.8224
14.7657
14.5938
14.4317
14.2786
14.1343
13.9977
13.869
13.7473
13.6325
13.524
13.4219
13.3252
13.2344
13.1482
13.0676
12.9907
12.9192
12.8504
14.7657
14.5937
14.4319
14.2789
14.1361
14.002
13.8782
13.7628
13.6573
13.5595
13.4707
13.3883
13.3141
13.2446
13.1829
13.1237
13.0729
13.0213
14.7644
14.5922
14.4335
14.2871
14.1628
14.0551
13.9689
13.8978
13.8459
13.8048
13.7783
13.758
13.7482
13.7415
13.7422
13.7433
13.7528
13.7516
14.7478
14.5944
14.4764
14.4101
14.4234
14.4613
14.5554
14.6706
14.8169
14.9612
15.1237
15.2711
15.4319
15.5683
15.7196
15.8372
15.9781
16.072
14.6504
14.7821
14.9369
15.3416
15.9227
16.5508
17.2338
17.878
18.5377
19.1217
19.7127
20.2096
20.72
21.1248
21.5587
21.8756
22.2453
22.4806
14.572
16.1273
17.9726
20.4196
22.9236
25.2654
27.5467
29.5525
31.4906
33.1025
34.6855
35.9137
37.1756
38.0656
39.0608
39.6724
40.4609
40.8523
16.5442
25.8796
36.7208
46.5546
55.8657
64.2733
72.1012
78.7409
84.8017
89.5901
94.0126
97.1743
100.312
102.189
104.451
105.414
107.132
107.489
45.7965
105.211
164.439
217.233
267.842
313.448
353.657
386.102
413.216
433.649
450.586
462.693
472.88
479.759
486.799
490.286
496.13
497.463
632.343
1081.16
1534.74
1880.99
2183.47
2431.77
2631.53
2773.03
2876.15
2932.21
2969.07
2970.17
2963.16
2946.23
2918.31
2885.06
2849.27
2811.94
0.223505
0.221467
0.378768
0.546387
0.70544
0.848518
0.974131
1.08333
1.1856
1.28691
1.38825
1.49304
1.60447
1.72454
1.85424
1.99487
2.15139
2.33889
2.57945
2.87261
3.21163
3.59761
4.03661
4.53726
5.10889
5.76012
6.49714
7.3263
8.25285
9.28198
10.4187
11.6601
13.0069
14.459
16.0158
17.6752
19.4372
21.3022
23.2706
25.3449
27.528
29.8258
32.2465
34.8035
37.5153
40.4101
43.5215
46.744
50.1317
53.6664
57.3627
61.2207
65.2469
69.4451
73.8199
78.3761
83.1176
88.0492
93.1744
98.498
104.023
109.753
115.691
121.841
128.204
134.783
141.579
148.594
155.828
163.282
170.955
178.847
186.954
195.277
203.811
212.555
221.502
230.649
239.989
249.518
259.227
269.111
279.158
289.361
299.709
310.192
320.797
331.513
342.325
353.219
364.179
375.188
386.225
397.269
408.297
419.281
430.194
441.005
451.691
462.24
472.68
483.072
493.276
503.344
513.233
522.941
532.442
541.721
550.76
559.54
568.044
576.255
584.157
591.733
598.969
605.849
612.361
618.492
624.23
629.565
634.487
638.989
643.061
646.7
649.901
652.661
654.977
656.848
658.271
659.234
659.855
660.05
659.748
658.929
657.692
656.133
654.162
651.808
649.079
645.991
642.559
638.796
634.719
630.355
625.719
620.81
615.648
610.246
604.619
598.782
592.748
586.533
580.149
573.61
566.928
560.115
553.184
546.143
539.005
531.778
524.473
517.1
509.673
502.209
494.765
487.842
484.019
481.666
479.413
477.133
474.805
472.412
469.937
467.349
464.6
461.599
458.172
453.862
447.683
422.208
0.870695
0.501735
0.449846
0.4667
0.510158
0.568147
0.636031
0.713557
0.802206
0.902799
1.01547
1.14134
1.28204
1.43942
1.6155
1.81285
2.03491
2.28598
2.56972
2.88821
3.24396
3.63895
4.07556
4.55587
5.08025
5.64535
6.25394
6.90689
7.60402
8.34505
9.12971
9.95765
10.8279
11.741
12.6936
13.6852
14.717
15.7904
16.9075
18.0705
19.2825
20.5467
21.8665
23.2458
24.6877
26.1947
27.7658
29.3951
31.0896
32.8482
34.6738
36.5676
38.5312
40.5661
42.6738
44.8558
47.1132
49.4474
51.8593
54.3502
56.9207
59.5719
62.3043
65.1184
68.0145
70.9928
74.0534
77.1961
80.4205
83.7264
87.1128
90.579
94.1238
97.7459
101.444
105.216
109.06
112.974
116.955
121.001
125.108
129.274
133.495
137.766
142.085
146.447
150.846
155.278
159.737
164.218
168.713
173.217
177.721
182.217
186.698
191.154
195.58
199.97
204.325
208.659
213
217.396
221.719
225.988
230.19
234.321
238.373
242.338
246.211
249.984
253.65
257.203
260.636
263.942
267.117
270.154
273.047
275.792
278.383
280.817
283.089
285.196
287.135
288.902
290.496
291.916
293.159
294.226
295.116
295.831
296.382
296.75
296.925
296.904
296.716
296.387
295.891
295.24
294.436
293.482
292.383
291.145
289.774
288.277
286.659
284.924
283.078
281.126
279.074
276.928
274.693
272.375
269.98
267.511
264.976
262.377
259.721
257.011
254.251
251.446
248.6
245.717
242.804
239.868
236.937
234.143
231.945
230.093
228.302
226.511
224.704
222.875
221.02
219.134
217.212
215.251
213.229
211.208
209.085
205.326
1.80869
0.873143
0.691332
0.657907
0.675151
0.720192
0.785192
0.867401
0.966794
1.08413
1.22023
1.37601
1.55236
1.75022
1.97068
2.21505
2.48497
2.78223
3.10853
3.46443
3.84927
4.26295
4.70544
5.17695
5.67833
6.21229
6.77789
7.37488
8.00358
8.6646
9.35887
10.0879
10.8462
11.6255
12.4372
13.2849
14.1701
15.0944
16.0593
17.0665
18.1173
19.2132
20.3557
21.546
22.7851
24.0739
25.4132
26.8026
28.2437
29.7373
31.2847
32.8869
34.545
36.2598
38.0324
39.8636
41.7543
43.7052
45.7171
47.7906
49.9263
52.1247
54.3863
56.7113
59.0997
61.5516
64.0669
66.6454
69.287
71.9911
74.7573
77.5848
80.4728
83.4204
86.4264
89.4894
92.608
95.7805
99.0051
102.28
105.602
108.97
112.38
115.831
119.318
122.839
126.389
129.966
133.565
137.183
140.813
144.453
148.097
151.741
155.38
159.011
162.63
166.237
169.833
173.421
177.006
180.575
184.1
187.581
191.011
194.383
197.693
200.934
204.101
207.188
210.19
213.101
215.915
218.628
221.235
223.73
226.109
228.369
230.504
232.511
234.388
236.13
237.735
239.201
240.527
241.71
242.75
243.646
244.398
245.008
245.475
245.795
245.95
245.967
245.84
245.591
245.209
244.697
244.059
243.297
242.417
241.422
240.317
239.107
237.795
236.387
234.887
233.299
231.629
229.879
228.057
226.164
224.207
222.19
220.116
217.989
215.814
213.594
211.332
209.032
206.698
204.333
201.942
199.532
197.122
194.771
192.626
190.626
188.672
186.724
184.77
182.807
180.831
178.845
176.855
174.87
172.905
171.059
169.345
167.677
2.74403
1.2306
0.953419
0.890493
0.897708
0.94248
1.0139
1.1082
1.22444
1.36276
1.52367
1.70765
1.91498
2.14578
2.40009
2.67794
2.97941
3.30457
3.65341
4.02572
4.42124
4.83994
5.28213
5.74842
6.23972
6.75706
7.30105
7.87233
8.47155
9.09924
9.75551
10.4397
11.1559
11.9111
12.7026
13.5308
14.3966
15.3014
16.2466
17.2338
18.2629
19.3349
20.4504
21.61
22.814
24.0619
25.3545
26.6945
28.083
29.5212
31.0099
32.5502
34.143
35.7893
37.4899
39.2459
41.058
42.927
44.8536
46.8385
48.8823
50.9855
53.1486
55.372
57.656
60.0009
62.4067
64.8734
67.4011
69.9895
72.6384
75.3471
78.1153
80.942
83.8264
86.7675
89.764
92.8144
95.9172
99.0706
102.273
105.521
108.814
112.148
115.52
118.928
122.369
125.839
129.334
132.85
136.385
139.933
143.491
147.054
150.62
154.184
157.744
161.297
164.842
168.377
171.896
175.387
178.84
182.25
185.61
188.915
192.158
195.334
198.437
201.462
204.402
207.253
210.008
212.663
215.212
217.651
219.975
222.18
224.261
226.216
228.039
229.73
231.284
232.699
233.974
235.108
236.098
236.946
237.65
238.211
238.63
238.897
239.001
238.977
238.815
238.522
238.097
237.543
236.863
236.06
235.139
234.105
232.96
231.711
230.362
228.917
227.381
225.758
224.053
222.271
220.417
218.495
216.509
214.464
212.364
210.213
208.015
205.773
203.492
201.175
198.825
196.446
194.043
191.622
189.196
186.799
184.493
182.261
180.063
177.873
175.685
173.493
171.3
169.109
166.924
164.766
162.667
160.721
158.961
157.452
3.55833
1.58031
1.22602
1.14111
1.14195
1.18891
1.26767
1.373
1.50304
1.6573
1.83569
2.03809
2.26417
2.51339
2.78507
3.07851
3.39311
3.7284
4.08409
4.46011
4.85661
5.27404
5.71315
6.17493
6.66051
7.17106
7.70769
8.27153
8.86366
9.48518
10.1372
10.8212
11.539
12.2927
13.0826
13.9094
14.774
15.6772
16.6197
17.6019
18.6254
19.6912
20.8002
21.9532
23.1514
24.396
25.6886
27.0291
28.4185
29.8579
31.3482
32.8906
34.4861
36.1359
37.841
39.6024
41.4214
43.299
45.2361
47.2333
49.2915
51.4114
53.5937
55.8392
58.1483
60.5217
62.9597
65.4627
68.0308
70.6642
73.3627
76.1263
78.9545
81.8469
84.8027
87.8211
90.901
94.0412
97.2402
100.496
103.808
107.172
110.588
114.051
117.56
121.112
124.702
128.328
131.986
135.672
139.382
143.112
146.858
150.615
154.38
158.148
161.914
165.675
169.425
173.158
176.867
180.546
184.185
187.778
191.32
194.803
198.221
201.569
204.838
208.024
211.12
214.119
217.017
219.807
222.483
225.041
227.475
229.781
231.954
233.99
235.886
237.638
239.243
240.699
242.003
243.155
244.154
244.997
245.687
246.222
246.603
246.811
246.866
246.775
246.538
246.157
245.634
244.973
244.177
243.249
242.196
241.021
239.728
238.325
236.814
235.202
233.493
231.692
229.806
227.838
225.795
223.681
221.5
219.259
216.96
214.61
212.212
209.77
207.289
204.772
202.223
199.645
197.044
194.426
191.8
189.187
186.619
184.092
181.589
179.099
176.614
174.134
171.663
169.205
166.774
164.392
162.092
159.96
158.025
156.302
4.23357
1.91112
1.49556
1.39304
1.38924
1.43793
1.5222
1.63529
1.77442
1.93841
2.12659
2.33837
2.57299
2.82958
3.10717
3.40489
3.72204
4.0582
4.41326
4.78743
5.18124
5.5955
6.03125
6.48967
6.97206
7.47971
8.01393
8.576
9.1672
9.78878
10.442
11.1283
11.849
12.6052
13.3979
14.228
15.0963
16.0039
16.9517
17.9405
18.9716
20.046
21.1647
22.3289
23.5396
24.7982
26.1057
27.4631
28.8715
30.3323
31.8466
33.4157
35.041
36.7237
38.4652
40.2667
42.1295
44.0546
46.0433
48.0972
50.2175
52.4053
54.6617
56.9878
59.3846
61.8529
64.3935
67.0071
69.6941
72.4551
75.2901
78.1994
81.1827
84.2398
87.3702
90.5731
93.8477
97.1926
100.606
104.088
107.634
111.243
114.914
118.641
122.424
126.258
130.139
134.065
138.03
142.031
146.063
150.121
154.201
158.297
162.404
166.516
170.629
174.735
178.829
182.903
186.95
190.962
194.932
198.852
202.715
206.514
210.242
213.891
217.454
220.924
224.294
227.557
230.707
233.737
236.64
239.411
242.045
244.535
246.877
249.066
251.099
252.971
254.679
256.221
257.595
258.798
259.83
260.69
261.378
261.895
262.235
262.384
262.376
262.201
261.862
261.364
260.709
259.9
258.941
257.839
256.597
255.221
253.716
252.089
250.344
248.489
246.529
244.469
242.316
240.075
237.753
235.354
232.886
230.352
227.759
225.112
222.415
219.674
216.892
214.074
211.225
208.349
205.45
202.534
199.61
196.691
193.796
190.927
188.078
185.244
182.421
179.613
176.822
174.057
171.334
168.675
166.116
163.731
161.532
159.47
4.78626
2.21558
1.75201
1.63397
1.62531
1.67389
1.76074
1.8777
2.02114
2.18922
2.38084
2.59508
2.83103
3.08771
3.36422
3.65979
3.97389
4.3063
4.65716
5.02693
5.41634
5.82639
6.25823
6.71311
7.19237
7.69734
8.22936
8.78975
9.37982
10.0009
10.6542
11.341
12.0626
12.8201
13.6146
14.4471
15.3189
16.2308
17.1842
18.1801
19.2198
20.3045
21.4354
22.6138
23.841
25.1184
26.4474
27.8294
29.2658
30.7582
32.3082
33.9172
35.5871
37.3193
39.1156
40.9776
42.907
44.9054
46.9745
49.116
51.3317
53.6231
55.9917
58.439
60.9665
63.5753
66.2667
69.0417
71.9012
74.8459
77.8764
80.9931
84.196
87.4851
90.86
94.3201
97.8645
101.492
105.201
108.99
112.857
116.799
120.814
124.898
129.048
133.26
137.53
141.854
146.227
150.644
155.099
159.587
164.102
168.639
173.19
177.749
182.308
186.862
191.401
195.917
200.403
204.85
209.249
213.592
217.871
222.078
226.204
230.242
234.182
238.016
241.738
245.338
248.81
252.145
255.337
258.38
261.266
263.99
266.546
268.93
271.135
273.159
274.998
276.649
278.109
279.377
280.451
281.332
282.018
282.512
282.798
282.887
282.792
282.511
282.046
281.401
280.58
279.587
278.427
277.106
275.63
274.004
272.235
270.33
268.296
266.139
263.867
261.485
259.001
256.422
253.754
251.004
248.179
245.284
242.326
239.311
236.245
233.133
229.98
226.791
223.572
220.326
217.06
213.779
210.49
207.204
203.933
200.681
197.449
194.236
191.041
187.869
184.726
181.622
178.571
175.6
172.742
170.058
167.542
165.096
5.5837
2.55572
2.00724
1.86149
1.84233
1.88649
1.972
2.08888
2.23243
2.40018
2.59065
2.80271
3.03542
3.28789
3.55937
3.8493
4.15739
4.48362
4.82832
5.19207
5.57573
5.98032
6.40703
6.85709
7.33182
7.83252
8.36051
8.91714
9.50375
10.1216
10.7722
11.4566
12.1762
12.9322
13.726
14.5587
15.4317
16.3462
17.3037
18.3054
19.3528
20.4474
21.5906
22.784
24.0291
25.3275
26.6811
28.0917
29.5611
31.0913
32.6842
34.3419
36.0663
37.8594
39.7235
41.6607
43.673
45.7627
47.9319
50.1829
52.5178
54.9386
57.4475
60.0464
62.7371
65.5215
68.4012
71.3776
74.4521
77.6257
80.8993
84.2736
87.7489
91.3253
95.0026
98.7803
102.657
106.633
110.705
114.872
119.131
123.479
127.914
132.431
137.028
141.698
146.438
151.242
156.105
161.021
165.983
170.985
176.02
181.079
186.157
191.244
196.332
201.413
206.477
211.514
216.516
221.473
226.376
231.214
235.979
240.661
245.25
249.737
254.113
258.368
262.493
266.48
270.319
274.003
277.524
280.873
284.044
287.03
289.825
292.423
294.819
297.008
298.988
300.753
302.303
303.634
304.747
305.64
306.314
306.767
306.986
306.995
306.789
306.374
305.753
304.93
303.909
302.695
301.294
299.713
297.959
296.038
293.958
291.727
289.353
286.843
284.205
281.448
278.579
275.606
272.537
269.379
266.14
262.826
259.447
256.007
252.514
248.974
245.393
241.778
238.133
234.465
230.778
227.079
223.374
219.673
215.985
212.316
208.669
205.046
201.45
197.886
194.363
190.89
187.486
184.173
180.983
177.965
175.099
172.253
6.80281
2.96164
2.26598
2.07288
2.03482
2.06912
2.14922
2.26247
2.40281
2.56707
2.75333
2.96036
3.18717
3.43303
3.69736
3.97981
4.28025
4.59885
4.93603
5.29242
5.66891
6.06654
6.48647
6.92993
7.39818
7.89242
8.41388
8.96401
9.54425
10.156
10.8007
11.4797
12.1944
12.9462
13.7366
14.5671
15.4391
16.3543
17.3142
18.3204
19.3747
20.4788
21.6346
22.8437
24.1081
25.4292
26.8099
28.2524
29.7591
31.3326
32.9751
34.6891
36.4772
38.342
40.2861
42.3121
44.4228
46.621
48.9093
51.2906
53.7675
56.3428
59.0191
61.7989
64.6846
67.6785
70.7828
73.9994
77.3299
80.7759
84.3386
88.0189
91.8173
95.7342
99.7692
103.922
108.192
112.577
117.075
121.685
126.403
131.226
136.151
141.173
146.287
151.489
156.771
162.13
167.556
173.045
178.587
184.175
189.8
195.454
201.128
206.812
212.496
218.17
223.823
229.444
235.023
240.549
246.011
251.398
256.699
261.904
267.001
271.981
276.831
281.542
286.104
290.506
294.74
298.795
302.662
306.334
309.803
313.061
316.101
318.917
321.504
323.856
325.97
327.841
329.469
330.85
331.983
332.869
333.508
333.893
334.027
333.921
333.574
332.993
332.181
331.142
329.883
328.408
326.726
324.843
322.767
320.506
318.07
315.466
312.705
309.794
306.743
303.562
300.259
296.842
293.322
289.706
286.003
282.222
278.371
274.458
270.49
266.475
262.42
258.331
254.216
250.08
245.929
241.77
237.61
233.456
229.318
225.201
221.111
217.053
213.031
209.052
205.125
201.262
197.48
193.801
190.254
186.878
183.639
180.388
8.02634
3.35302
2.50233
2.25662
2.19593
2.21711
2.28893
2.39596
2.53077
2.6894
2.86959
3.0699
3.28939
3.52739
3.78345
4.05736
4.34917
4.65914
4.98774
5.33555
5.70333
6.09226
6.50359
6.93865
7.39893
7.88623
8.40086
8.94419
9.51764
10.1227
10.7608
11.4335
12.1422
12.8888
13.6746
14.5015
15.3711
16.2854
17.2462
18.2553
19.315
20.4272
21.5943
22.8185
24.1024
25.4491
26.8606
28.3397
29.8897
31.5136
33.2143
34.9948
36.8582
38.8078
40.8467
42.9782
45.2058
47.5328
49.9626
52.4987
55.1445
57.9032
60.7782
63.7725
66.8892
70.1311
73.5008
77.0008
80.6331
84.3996
88.3018
92.3407
96.5172
100.831
105.283
109.872
114.596
119.455
124.445
129.565
134.81
140.177
145.661
151.257
156.959
162.761
168.656
174.637
180.695
186.823
193.011
199.249
205.529
211.838
218.167
224.505
230.839
237.158
243.45
249.703
255.904
262.04
268.1
274.071
279.941
285.698
291.329
296.822
302.166
307.349
312.359
317.186
321.818
326.247
330.461
334.453
338.212
341.732
345.004
348.023
350.782
353.277
355.503
357.456
359.134
360.535
361.658
362.504
363.073
363.358
363.37
363.109
362.582
361.793
360.748
359.453
357.912
356.134
354.125
351.896
349.453
346.808
343.97
340.948
337.754
334.397
330.888
327.236
323.454
319.549
315.533
311.415
307.206
302.914
298.549
294.121
289.637
285.107
280.538
275.938
271.315
266.675
262.026
257.374
252.725
248.089
243.473
238.885
234.33
229.816
225.349
220.936
216.588
212.317
208.139
204.076
200.152
196.4
192.774
189.12
9.17878
3.70643
2.70525
2.407
2.32246
2.32897
2.39079
2.48994
2.61768
2.76936
2.94235
3.13504
3.34645
3.57595
3.82318
4.08789
4.37031
4.67095
4.99059
5.33047
5.69074
6.07221
6.47591
6.90301
7.35464
7.83173
8.3356
8.86805
9.4307
10.0252
10.6532
11.3163
12.0165
12.7554
13.5351
14.3575
15.2247
16.1389
17.1024
18.1175
19.1867
20.3125
21.4978
22.7452
24.0573
25.4364
26.885
28.4086
30.0118
31.6977
33.4701
35.3325
37.2886
39.3423
41.4974
43.7581
46.1284
48.6125
51.2144
53.9384
56.7886
59.7689
62.8833
66.1356
69.5292
73.0677
76.7541
80.5911
84.5813
88.7268
93.029
97.4893
102.108
106.886
111.823
116.916
122.166
127.57
133.124
138.825
144.669
150.651
156.766
163.006
169.366
175.837
182.412
189.08
195.833
202.661
209.553
216.498
223.483
230.498
237.529
244.563
251.588
258.589
265.553
272.466
279.314
286.082
292.758
299.327
305.776
312.091
318.258
324.264
330.097
335.743
341.19
346.426
351.44
356.22
360.757
365.04
369.061
372.81
376.281
379.466
382.36
384.956
387.252
389.243
390.928
392.304
393.37
394.129
394.579
394.721
394.559
394.095
393.336
392.291
390.965
389.363
387.493
385.363
382.981
380.357
377.502
374.426
371.14
367.656
363.985
360.138
356.128
351.965
347.661
343.229
338.677
334.019
329.265
324.426
319.512
314.533
309.5
304.422
299.308
294.167
289.007
283.835
278.66
273.489
268.329
263.189
258.075
252.997
247.963
242.978
238.052
233.192
228.41
223.719
219.133
214.673
210.36
206.221
202.204
198.151
10.2234
4.01305
2.87149
2.52327
2.41431
2.4062
2.45701
2.54725
2.66698
2.81092
2.97607
3.1606
3.36351
3.58437
3.82317
4.08045
4.35548
4.64851
4.95993
5.29002
5.63948
6.00969
6.40184
6.81712
7.25678
7.72218
8.21521
8.73727
9.28997
9.87505
10.4944
11.1498
11.8435
12.5775
13.3541
14.1755
15.0444
15.9633
16.9349
17.9621
19.0477
20.1948
21.4071
22.6874
24.0384
25.4623
26.9639
28.5496
30.2237
31.9916
33.8585
35.8281
37.9048
40.0931
42.3978
44.8238
47.3759
50.0591
52.8784
55.8385
58.9443
62.2005
65.6117
69.1823
72.9162
76.8173
80.889
85.1343
89.5558
94.1557
98.9354
103.896
109.038
114.361
119.863
125.544
131.402
137.431
143.63
149.993
156.515
163.189
170.009
176.967
184.053
191.26
198.576
205.991
213.495
221.074
228.717
236.41
244.14
251.893
259.655
267.41
275.144
282.841
290.487
298.064
305.559
312.955
320.238
327.391
334.4
341.251
347.927
354.416
360.703
366.774
372.617
378.218
383.566
388.648
393.455
397.975
402.2
406.121
409.73
413.02
415.985
418.621
420.923
422.888
424.514
425.801
426.748
427.355
427.625
427.562
427.165
426.433
425.385
424.025
422.36
420.396
418.142
415.607
412.801
409.734
406.417
402.864
399.085
395.094
390.903
386.526
381.975
377.262
372.402
367.405
362.286
357.055
351.725
346.308
340.817
335.261
329.653
324.002
318.32
312.615
306.897
301.175
295.457
289.75
284.063
278.404
272.781
267.204
261.679
256.217
250.824
245.512
240.29
235.172
230.173
225.311
220.602
216.072
211.664
207.225
11.1387
4.26934
3.00106
2.60687
2.47404
2.45175
2.49135
2.57224
2.68337
2.81921
2.97678
3.15465
3.351
3.56502
3.79618
4.04381
4.30852
4.59083
4.89128
5.21061
5.54999
5.91025
6.29249
6.69796
7.12805
7.58428
8.06834
8.58198
9.12705
9.70556
10.3196
10.9716
11.6638
12.3986
13.1788
14.0071
14.8864
15.82
16.8118
17.8643
18.9809
20.1648
21.4189
22.7453
24.1509
25.6423
27.2248
28.9036
30.6838
32.5712
34.5721
36.6917
38.935
41.3078
43.8157
46.4645
49.2599
52.2077
55.3135
58.583
62.0215
65.6343
69.4266
73.4029
77.5676
81.9246
86.4775
91.229
96.1815
101.337
106.696
112.259
118.026
123.995
130.165
136.532
143.093
149.844
156.779
163.892
171.175
178.621
186.221
193.965
201.843
209.844
217.955
226.164
234.458
242.823
251.244
259.706
268.195
276.694
285.187
293.657
302.089
310.464
318.767
326.98
335.086
343.069
350.912
358.598
366.112
373.437
380.559
387.462
394.131
400.552
406.712
412.598
418.196
423.495
428.485
433.155
437.495
441.497
445.154
448.459
451.407
453.992
456.212
458.063
459.546
460.658
461.401
461.777
461.788
461.446
460.728
459.66
458.251
456.51
454.441
452.053
449.355
446.358
443.072
439.509
435.683
431.604
427.289
422.749
417.999
413.054
407.927
402.632
397.184
391.595
385.88
380.051
374.123
368.107
362.018
355.867
349.666
343.428
337.164
330.883
324.597
318.314
312.043
305.794
299.574
293.392
287.257
281.178
275.164
269.223
263.366
257.602
251.942
246.399
240.988
235.724
230.623
225.706
220.914
216.105
11.9194
4.47651
3.09625
2.66087
2.50598
2.47009
2.49876
2.57101
2.67525
2.8047
2.95557
3.12521
3.31275
3.51763
3.73955
3.97863
4.23505
4.50913
4.80145
5.11277
5.44409
5.79649
6.17124
6.56974
6.99361
7.44455
7.92439
8.43514
8.97897
9.55823
10.1755
10.8335
11.5356
12.2844
13.0827
13.934
14.8414
15.8083
16.8366
17.9306
19.0961
20.3383
21.663
23.076
24.5826
26.1892
27.902
29.7273
31.6716
33.7418
35.9447
38.2863
40.7736
43.4134
46.2126
49.1779
52.3157
55.6325
59.1343
62.8272
66.7171
70.8094
75.109
79.6207
84.3484
89.2956
94.4652
99.8593
105.479
111.326
117.398
123.696
130.217
136.958
143.916
151.086
158.462
166.039
173.807
181.76
189.888
198.18
206.626
215.214
223.931
232.764
241.7
250.723
259.818
268.969
278.16
287.375
296.597
305.807
314.989
324.124
333.194
342.182
351.069
359.837
368.469
376.947
385.253
393.37
401.282
408.972
416.425
423.625
430.557
437.206
443.56
449.604
455.326
460.715
465.761
470.453
474.782
478.741
482.322
485.519
488.328
490.744
492.766
494.39
495.619
496.45
496.884
496.928
496.598
495.861
494.742
493.254
491.405
489.205
486.659
483.778
480.572
477.053
473.231
469.121
464.735
460.087
455.192
450.065
444.721
439.176
433.445
427.541
421.482
415.28
408.951
402.509
395.968
389.342
382.646
375.892
369.093
362.263
355.413
348.555
341.7
334.858
328.038
321.25
314.502
307.803
301.164
294.591
288.096
281.687
275.375
269.169
263.082
257.124
251.311
245.656
240.172
234.879
229.718
224.562
12.5421
4.62864
3.15717
2.68804
2.51451
2.46726
2.48747
2.55182
2.64758
2.76877
2.91176
3.0745
3.25563
3.45437
3.67039
3.9037
4.15457
4.42343
4.71096
5.01804
5.34579
5.69548
6.06863
6.46698
6.8926
7.3476
7.83391
8.35396
8.91039
9.506
10.1436
10.826
11.555
12.3344
13.1692
14.064
15.0234
16.0525
17.1573
18.3426
19.614
20.9779
22.4413
24.0111
25.6943
27.4981
29.4299
31.4974
33.7082
36.0704
38.5916
41.2796
44.1429
47.1898
50.4287
53.8667
57.5105
61.3663
65.44
69.7375
74.264
79.0242
84.0223
89.2616
94.745
100.474
106.45
112.674
119.144
125.858
132.815
140.01
147.44
155.099
162.981
171.077
179.381
187.883
196.574
205.441
214.474
223.66
232.987
242.439
252.002
261.661
271.401
281.204
291.055
300.935
310.827
320.714
330.576
340.396
350.154
359.833
369.414
378.877
388.205
397.378
406.38
415.192
423.796
432.175
440.313
448.193
455.8
463.118
470.133
476.831
483.198
489.222
494.891
500.194
505.121
509.664
513.813
517.562
520.905
523.837
526.353
528.451
530.131
531.388
532.228
532.652
532.652
532.267
531.445
530.221
528.603
526.6
524.222
521.48
518.38
514.935
511.154
507.052
502.639
497.93
492.938
487.68
482.17
476.424
470.458
464.289
457.933
451.405
444.721
437.896
430.946
423.886
416.731
409.496
402.195
394.842
387.452
380.039
372.614
365.19
357.779
350.392
343.038
335.727
328.469
321.272
314.147
307.101
300.146
293.29
286.544
279.917
273.422
267.07
260.874
254.847
248.998
243.35
237.842
232.369
13.0925
4.74963
3.19539
2.69635
2.50712
2.44908
2.45934
2.51555
2.60513
2.72118
2.85981
3.01873
3.1966
3.3927
3.60678
3.83905
4.09018
4.36055
4.65098
4.96267
5.29702
5.65567
6.04042
6.45314
6.89553
7.36881
7.87696
8.42347
9.01188
9.64595
10.3297
11.0676
11.8651
12.7267
13.6578
14.664
15.7518
16.9281
18.2002
19.5753
21.0611
22.6658
24.3978
26.2659
28.279
30.4458
32.7754
35.2765
37.958
40.8274
43.8927
47.1643
50.652
54.3662
58.3191
62.5158
66.96
71.6559
76.6075
81.8184
87.2914
93.0288
99.0315
105.3
111.834
118.631
125.689
133.005
140.574
148.39
156.449
164.741
173.26
181.997
190.942
200.085
209.414
218.918
228.585
238.4
248.351
258.422
268.599
278.866
289.207
299.605
310.044
320.505
330.973
341.429
351.854
362.231
372.541
382.765
392.886
402.885
412.743
422.443
431.966
441.294
450.411
459.298
467.939
476.317
484.416
492.221
499.718
506.891
513.728
520.214
526.339
532.089
537.455
542.427
546.996
551.155
554.895
558.212
561.101
563.557
565.58
567.163
568.314
569.022
569.303
569.153
568.584
567.57
566.14
564.299
562.056
559.421
556.406
553.02
549.272
545.175
540.741
535.982
530.912
525.545
519.895
513.979
507.812
501.412
494.794
487.975
480.973
473.804
466.483
459.027
451.452
443.773
436.005
428.165
420.267
412.327
404.358
396.376
388.392
380.421
372.474
364.563
356.698
348.889
341.145
333.477
325.892
318.401
311.013
303.738
296.586
289.567
282.692
275.972
269.42
263.047
256.861
250.883
245.054
239.3
13.5588
4.83746
3.21261
2.68992
2.48743
2.42124
2.42681
2.4803
2.56868
2.68519
2.82576
2.98798
3.17059
3.37299
3.59501
3.83674
4.09812
4.38026
4.68497
5.01407
5.36962
5.75395
6.16971
6.61993
7.10823
7.6387
8.21514
8.84213
9.52477
10.2686
11.0799
11.9653
12.9324
13.9884
15.1413
16.3995
17.7722
19.2689
20.8999
22.6754
24.6059
26.7021
28.9748
31.4351
34.0933
36.9597
40.0444
43.357
46.9066
50.7009
54.7477
59.0558
63.6334
68.4884
73.6297
79.0588
84.7739
90.7737
97.0569
103.621
110.464
117.582
124.97
132.622
140.533
148.694
157.099
165.739
174.604
183.685
192.971
202.452
212.117
221.953
231.949
242.092
252.37
262.768
273.273
283.87
294.546
305.285
316.072
326.891
337.727
348.564
359.385
370.174
380.915
391.589
402.182
412.675
423.051
433.294
443.387
453.313
463.054
472.595
481.919
491.01
499.852
508.428
516.725
524.726
532.417
539.785
546.815
553.495
559.814
565.76
571.321
576.487
581.249
585.599
589.531
593.037
596.111
598.751
600.951
602.709
604.028
604.892
605.333
605.306
604.89
603.992
602.677
600.936
598.778
596.209
593.241
589.885
586.154
582.054
577.598
572.798
567.666
562.217
556.463
550.418
544.098
537.518
530.695
523.645
516.387
508.936
501.31
493.525
485.598
477.544
469.38
461.121
452.785
444.385
435.937
427.458
418.961
410.461
401.973
393.508
385.081
376.701
368.38
360.129
351.956
343.871
335.883
328.002
320.237
312.597
305.092
297.731
290.527
283.488
276.626
269.953
263.474
257.212
251.104
245.12
13.9312
4.88758
3.21111
2.6745
2.46757
2.40177
2.41052
2.46923
2.56453
2.68896
2.83832
3.01114
3.20662
3.42464
3.66562
3.93056
4.22123
4.53928
4.8871
5.26764
5.68432
6.14108
6.64238
7.19334
7.79989
8.46863
9.20639
10.0207
10.9198
11.9129
13.0102
14.2226
15.5617
17.0395
18.6686
20.4617
22.4321
24.5938
26.9604
29.5454
32.3617
35.4216
38.7373
42.32
46.1795
50.3236
54.7593
59.4935
64.5319
69.8767
75.5294
81.4928
87.7704
94.3638
101.269
108.468
115.952
123.712
131.739
140.021
148.549
157.311
166.295
175.49
184.883
194.463
204.218
214.136
224.204
234.411
244.744
255.193
265.744
276.387
287.109
297.898
308.742
319.63
330.548
341.485
352.427
363.361