/*--------------------------------*- C++ -*----------------------------------*\
| =========                 |                                                 |
| \\      /  F ield         | OpenFOAM: The Open Source CFD Toolbox           |
|  \\    /   O peration     | Version:  2212                                  |
|   \\  /    A nd           | Website:  www.openfoam.com                      |
|    \\/     M anipulation  |                                                 |
\*---------------------------------------------------------------------------*/
FoamFile
{
    version     2.0;
    format      ascii;
    arch        "LSB;label=32;scalar=64";
    class       volScalarField;
    location    "250";
    object      k;
}
// * * * * * * * * * * * * * * * * * * * * * * * * * * * * * * * * * * * * * //

dimensions      [0 2 -2 0 0 0 0];

internalField   nonuniform List<scalar> 
12225
(
0.571498
0.987649
1.28116
1.45558
1.54167
1.57742
1.57566
1.56723
1.54713
1.52372
1.50045
1.478
1.45793
1.43899
1.42336
1.40762
1.397
1.38222
0.438453
0.496876
0.521953
0.534904
0.542882
0.54741
0.550232
0.552235
0.556005
0.559457
0.565547
0.571157
0.579521
0.586939
0.596726
0.605366
0.615273
0.625293
0.387571
0.41749
0.424189
0.421528
0.415042
0.404967
0.393803
0.382807
0.371934
0.362423
0.353245
0.346108
0.338979
0.334342
0.329112
0.326711
0.323047
0.322349
0.37618
0.384817
0.388124
0.387415
0.385434
0.381137
0.375684
0.369561
0.363116
0.356561
0.350108
0.343801
0.337819
0.332061
0.326777
0.321682
0.317161
0.312713
0.374178
0.375374
0.376396
0.375929
0.374798
0.372507
0.369615
0.366136
0.362484
0.358469
0.354556
0.350369
0.34652
0.342382
0.338792
0.334818
0.331606
0.327841
0.373737
0.372544
0.371997
0.371082
0.369917
0.368266
0.366339
0.364031
0.36164
0.358967
0.356372
0.353536
0.350915
0.348046
0.34552
0.342699
0.340347
0.337623
0.373769
0.371726
0.370231
0.368831
0.367465
0.36594
0.364344
0.362551
0.360733
0.358749
0.356812
0.35473
0.352769
0.350664
0.348747
0.34667
0.344851
0.342828
0.373818
0.371563
0.369621
0.36786
0.36625
0.364663
0.363121
0.361521
0.359944
0.358297
0.356694
0.355025
0.353428
0.351768
0.350212
0.348586
0.347102
0.345522
0.373833
0.371554
0.369457
0.36751
0.365722
0.364025
0.362428
0.360861
0.359354
0.357851
0.3564
0.354942
0.35354
0.352129
0.350784
0.349424
0.348147
0.346841
0.373832
0.37156
0.369425
0.36741
0.365529
0.363752
0.362086
0.360492
0.35898
0.357515
0.356115
0.354747
0.353436
0.35215
0.350918
0.349705
0.348549
0.347403
0.37383
0.371561
0.369417
0.367384
0.365468
0.363652
0.361942
0.360316
0.358778
0.357309
0.355911
0.354569
0.353288
0.352053
0.350871
0.349728
0.348634
0.347573
0.373828
0.371559
0.369412
0.367375
0.365448
0.363619
0.361889
0.360247
0.35869
0.357209
0.355802
0.354459
0.35318
0.351957
0.350789
0.349669
0.348598
0.34757
0.373827
0.371557
0.369407
0.367369
0.365437
0.363603
0.361865
0.360213
0.358646
0.357156
0.355739
0.35439
0.353107
0.351883
0.350716
0.349601
0.348536
0.34752
0.373827
0.371555
0.369403
0.367362
0.365428
0.363591
0.361848
0.360192
0.358619
0.357123
0.3557
0.354345
0.353056
0.351828
0.350656
0.34954
0.348474
0.347458
0.373826
0.371553
0.369399
0.367357
0.36542
0.363581
0.361835
0.360176
0.358599
0.3571
0.355673
0.354315
0.353021
0.351788
0.350613
0.349493
0.348424
0.347405
0.373826
0.371552
0.369396
0.367352
0.365413
0.363572
0.361824
0.360163
0.358584
0.357081
0.355652
0.35429
0.352994
0.351758
0.35058
0.349457
0.348385
0.347363
0.373825
0.371551
0.369394
0.367349
0.365408
0.363566
0.361816
0.360152
0.358571
0.357067
0.355635
0.354271
0.352972
0.351735
0.350555
0.349429
0.348355
0.347331
0.373825
0.371551
0.369393
0.367347
0.365405
0.363561
0.36181
0.360145
0.358562
0.357056
0.355623
0.354258
0.352957
0.351718
0.350536
0.349409
0.348334
0.347308
0.373825
0.371551
0.369393
0.367347
0.365404
0.36356
0.361808
0.360143
0.358559
0.357052
0.355618
0.354252
0.35295
0.35171
0.350527
0.3494
0.348323
0.347296
0.373825
0.371551
0.369394
0.367348
0.365406
0.363562
0.361811
0.360146
0.358562
0.357056
0.355622
0.354256
0.352955
0.351715
0.350532
0.349405
0.348329
0.347302
0.373826
0.371552
0.369396
0.367351
0.36541
0.363567
0.361816
0.360152
0.35857
0.357065
0.355633
0.354268
0.352969
0.35173
0.35055
0.349423
0.348349
0.347323
0.373826
0.371553
0.369398
0.367355
0.365416
0.363575
0.361828
0.360168
0.358591
0.357091
0.355664
0.354306
0.353012
0.351779
0.350602
0.34948
0.348408
0.347383
0.373826
0.371555
0.369401
0.367363
0.365432
0.363605
0.361875
0.360237
0.358681
0.357203
0.355794
0.354451
0.353167
0.351939
0.350762
0.349635
0.348552
0.347513
0.373827
0.371555
0.369413
0.367418
0.365544
0.363793
0.362138
0.360572
0.359071
0.357632
0.35624
0.354896
0.353589
0.352323
0.35109
0.349894
0.348728
0.347601
0.373819
0.371564
0.369582
0.367846
0.366223
0.364712
0.363219
0.361753
0.360266
0.358787
0.357288
0.3558
0.354306
0.352833
0.351361
0.349924
0.348495
0.34711
0.373767
0.371946
0.370916
0.369978
0.368912
0.367767
0.366326
0.364737
0.362933
0.361062
0.35906
0.357054
0.354971
0.352925
0.350845
0.348825
0.346792
0.344839
0.374093
0.3752
0.37726
0.377562
0.377091
0.375807
0.373488
0.370864
0.367802
0.364686
0.361328
0.358027
0.354602
0.351291
0.347923
0.3447
0.341472
0.338414
0.377677
0.394076
0.402944
0.402354
0.400308
0.396046
0.390665
0.385166
0.379132
0.373302
0.367221
0.361475
0.355719
0.350305
0.345128
0.340198
0.335726
0.331324
0.405777
0.438976
0.451187
0.455808
0.459109
0.462259
0.464969
0.467226
0.46922
0.47084
0.472486
0.473922
0.47554
0.477066
0.479203
0.480826
0.483664
0.485377
0.479011
0.684926
0.865145
0.990809
1.09437
1.17584
1.23938
1.28342
1.31504
1.33208
1.34321
1.34355
1.34143
1.33632
1.32786
1.31776
1.30683
1.2954
0.00276959
0.00456587
0.00652997
0.00833731
0.00988593
0.0111813
0.0122594
0.0131591
0.0139702
0.0147517
0.0155125
0.0162792
0.0170746
0.0179111
0.0187929
0.0197247
0.0207324
0.0218992
0.0233518
0.0250742
0.027
0.0291131
0.0314263
0.0339635
0.0367489
0.0398004
0.0431192
0.0467068
0.0505596
0.0546732
0.0590429
0.0636377
0.0684406
0.0734352
0.0786044
0.0839309
0.0894044
0.0950168
0.100762
0.106639
0.112649
0.118801
0.125107
0.131594
0.138295
0.145265
0.152582
0.159969
0.167551
0.175275
0.183167
0.19122
0.199438
0.207824
0.216377
0.225101
0.233994
0.24306
0.252297
0.261706
0.271285
0.281035
0.290953
0.301039
0.311289
0.321702
0.332273
0.342999
0.353874
0.364896
0.376056
0.387352
0.398774
0.410318
0.421974
0.433736
0.445594
0.457541
0.469565
0.481659
0.49381
0.50601
0.518245
0.530505
0.542778
0.555051
0.567311
0.579546
0.59174
0.60388
0.615948
0.62793
0.639805
0.651556
0.663158
0.67459
0.685825
0.696838
0.707609
0.718131
0.728438
0.738605
0.748486
0.758141
0.767535
0.776668
0.785521
0.794085
0.802347
0.810295
0.817917
0.825202
0.832139
0.83872
0.844933
0.850771
0.856225
0.861289
0.865955
0.870218
0.874074
0.877517
0.880546
0.883158
0.885352
0.887127
0.888486
0.889428
0.889953
0.890053
0.889833
0.889205
0.888131
0.886566
0.884644
0.882433
0.879822
0.876865
0.87356
0.869924
0.865969
0.861708
0.857154
0.85233
0.84725
0.841913
0.836336
0.83053
0.82451
0.818286
0.811872
0.805279
0.798521
0.791606
0.784549
0.777357
0.770041
0.762612
0.755077
0.747446
0.739727
0.731928
0.724064
0.716148
0.708235
0.700774
0.69622
0.693121
0.690128
0.687117
0.684068
0.680965
0.677794
0.674524
0.671109
0.66746
0.66341
0.658513
0.65178
0.626254
0.00685672
0.0107513
0.0151051
0.0185829
0.0215062
0.024086
0.0264493
0.0286811
0.030844
0.0330212
0.0353004
0.0377354
0.040352
0.0431557
0.0461414
0.0493039
0.0526454
0.056176
0.059908
0.063852
0.0680199
0.0724274
0.077096
0.0820513
0.0873178
0.0929157
0.0988546
0.105142
0.11178
0.118768
0.126106
0.13379
0.141821
0.150196
0.158903
0.167917
0.177235
0.186852
0.196768
0.20698
0.217488
0.228294
0.239398
0.250801
0.262505
0.274508
0.286806
0.299385
0.312261
0.325433
0.338911
0.352696
0.366793
0.381209
0.395945
0.411007
0.426398
0.442121
0.45818
0.474576
0.491312
0.50839
0.525808
0.543569
0.561672
0.580114
0.598894
0.618009
0.637455
0.657227
0.67732
0.697726
0.71844
0.739451
0.760751
0.78233
0.804176
0.826278
0.848621
0.871192
0.893976
0.916957
0.940118
0.963441
0.986907
1.0105
1.03419
1.05796
1.08179
1.10566
1.12953
1.15339
1.1772
1.20093
1.22456
1.24804
1.27134
1.29441
1.31719
1.33963
1.36165
1.38318
1.40443
1.42534
1.4459
1.46608
1.48586
1.50521
1.5241
1.54252
1.56042
1.5778
1.59462
1.61086
1.6265
1.64151
1.65589
1.66959
1.68262
1.69495
1.70657
1.71746
1.72761
1.73701
1.74566
1.75354
1.76066
1.767
1.77258
1.7774
1.78147
1.78479
1.78738
1.78897
1.78975
1.79002
1.78953
1.78833
1.78644
1.78388
1.78066
1.77681
1.77234
1.76729
1.76167
1.7555
1.74881
1.74161
1.73394
1.7258
1.71724
1.70826
1.69889
1.68916
1.67907
1.66866
1.65794
1.64693
1.63564
1.6241
1.61231
1.60029
1.58806
1.57564
1.56305
1.55042
1.53824
1.52625
1.51415
1.50192
1.48954
1.477
1.46428
1.45136
1.43818
1.42471
1.41073
1.39624
1.37964
1.34403
0.0111743
0.0175194
0.0234225
0.0279684
0.0318145
0.0352907
0.0385818
0.041812
0.0450773
0.0484565
0.0520114
0.0557833
0.059794
0.0640496
0.0685477
0.0732841
0.0782567
0.0834686
0.0889264
0.094641
0.100626
0.106898
0.113476
0.12038
0.127631
0.135248
0.143251
0.151656
0.160475
0.169715
0.179384
0.189483
0.200013
0.210966
0.222331
0.234102
0.246275
0.258844
0.271807
0.285158
0.298894
0.313012
0.32751
0.342383
0.35763
0.373249
0.389237
0.405594
0.422326
0.439436
0.456929
0.474809
0.493079
0.511744
0.530808
0.550273
0.570143
0.590421
0.611108
0.632207
0.653719
0.675643
0.697979
0.720727
0.743884
0.767448
0.791415
0.81578
0.840537
0.86568
0.891202
0.917093
0.943344
0.969944
0.996882
1.02414
1.05172
1.07958
1.10773
1.13614
1.16479
1.19366
1.22273
1.25199
1.2814
1.31095
1.3406
1.37034
1.40013
1.42994
1.45975
1.48952
1.51923
1.54883
1.57829
1.60758
1.63667
1.6655
1.69406
1.7223
1.7502
1.77774
1.8049
1.83166
1.85797
1.8838
1.90912
1.9339
1.95809
1.98167
2.00461
2.02686
2.04841
2.06921
2.08925
2.10848
2.1269
2.14446
2.16115
2.17694
2.19182
2.20577
2.21877
2.23081
2.24187
2.25195
2.26105
2.26915
2.27627
2.28241
2.28756
2.29175
2.29495
2.29704
2.29805
2.29828
2.29756
2.29594
2.29342
2.29003
2.2858
2.28074
2.27489
2.26827
2.26092
2.25285
2.2441
2.2347
2.22468
2.21406
2.20287
2.19115
2.17891
2.1662
2.15303
2.13943
2.12542
2.11104
2.09629
2.0812
2.06579
2.05008
2.0341
2.01786
2.0014
1.98482
1.96833
1.95186
1.93525
1.91846
1.90149
1.88433
1.86698
1.84943
1.83168
1.81372
1.79548
1.77708
1.75706
1.72553
0.0147645
0.02446
0.031838
0.0373641
0.0420202
0.0462443
0.0502745
0.0542648
0.0583269
0.0625452
0.066981
0.0716738
0.0766439
0.0818971
0.0874303
0.0932379
0.0993163
0.105666
0.112295
0.119213
0.126437
0.133988
0.14189
0.150169
0.15885
0.167957
0.177511
0.187528
0.198018
0.20899
0.220446
0.232384
0.244796
0.257677
0.271028
0.284842
0.299115
0.313839
0.329009
0.344621
0.360669
0.37715
0.394061
0.411398
0.42916
0.447347
0.465958
0.484995
0.504463
0.524366
0.544708
0.565494
0.586729
0.608417
0.630561
0.653166
0.676236
0.699773
0.72378
0.748259
0.773212
0.798638
0.824539
0.850912
0.877756
0.905067
0.932843
0.961078
0.989766
1.0189
1.04847
1.07847
1.10889
1.13971
1.17093
1.20252
1.23448
1.26678
1.2994
1.33233
1.36555
1.39903
1.43275
1.46668
1.5008
1.53508
1.56949
1.60399
1.63857
1.67318
1.70779
1.74237
1.77688
1.81128
1.84554
1.87962
1.91349
1.9471
1.98042
2.01341
2.04605
2.07828
2.11007
2.14139
2.17219
2.20243
2.23207
2.26106
2.28938
2.31697
2.3438
2.36983
2.39503
2.41935
2.44277
2.46524
2.48675
2.50725
2.52672
2.54514
2.56248
2.57871
2.59383
2.60781
2.62064
2.63232
2.64282
2.65216
2.66033
2.66732
2.67316
2.67785
2.68137
2.68362
2.6846
2.68463
2.68352
2.68135
2.67811
2.67385
2.66857
2.66233
2.65514
2.64703
2.63806
2.62823
2.6176
2.60619
2.59404
2.58118
2.56765
2.55348
2.53871
2.52336
2.50747
2.49107
2.47419
2.45686
2.4391
2.42094
2.40241
2.38352
2.36431
2.34479
2.32502
2.30505
2.28502
2.26491
2.24462
2.22415
2.20349
2.18263
2.1616
2.14041
2.1191
2.09772
2.07633
2.05509
2.0328
2.0033
0.0175644
0.0311126
0.0400741
0.0466244
0.0520918
0.0570233
0.0617111
0.0663387
0.0710346
0.0758922
0.0809778
0.0863344
0.0919854
0.0979394
0.104197
0.110754
0.117611
0.124771
0.132243
0.140045
0.148195
0.156719
0.165644
0.174995
0.184797
0.195072
0.205837
0.217106
0.228888
0.241186
0.254002
0.267334
0.281179
0.295536
0.310399
0.325763
0.341623
0.357975
0.374813
0.392133
0.409931
0.428205
0.446951
0.46617
0.48586
0.506023
0.526662
0.54778
0.569382
0.591473
0.614058
0.637143
0.660733
0.684834
0.709449
0.734585
0.760246
0.786436
0.813157
0.840414
0.868208
0.896541
0.925413
0.954824
0.984773
1.01526
1.04627
1.07782
1.10988
1.14246
1.17555
1.20913
1.2432
1.27773
1.31273
1.34817
1.38403
1.42029
1.45695
1.49396
1.53131
1.56898
1.60693
1.64514
1.68357
1.7222
1.761
1.79992
1.83894
1.87801
1.9171
1.95616
1.99517
2.03407
2.07283
2.11141
2.14976
2.18783
2.2256
2.26301
2.30001
2.33656
2.37262
2.40814
2.44306
2.47735
2.51095
2.54383
2.57592
2.60719
2.6376
2.66709
2.69563
2.72317
2.74967
2.77511
2.79943
2.8226
2.8446
2.86539
2.88495
2.90325
2.92027
2.93599
2.95039
2.96347
2.97521
2.98561
2.99466
3.00238
3.00877
3.01383
3.01755
3.01983
3.02071
3.02044
3.0189
3.01611
3.0121
3.00691
3.00056
2.99309
2.98453
2.97493
2.96432
2.95274
2.94023
2.92683
2.91257
2.89751
2.88167
2.8651
2.84784
2.82992
2.81139
2.79227
2.7726
2.75242
2.73176
2.71064
2.68909
2.66715
2.64484
2.6222
2.59925
2.57607
2.55274
2.52925
2.50557
2.4817
2.45764
2.4334
2.40903
2.38457
2.36007
2.33566
2.31146
2.28769
2.26332
2.23402
0.0197258
0.0373155
0.0478648
0.0554433
0.0617098
0.0673137
0.072597
0.0777711
0.0829813
0.0883325
0.0938995
0.0997328
0.105863
0.112306
0.11907
0.126159
0.133576
0.141331
0.149437
0.157913
0.166782
0.176067
0.185793
0.195985
0.206665
0.217849
0.229554
0.241788
0.25456
0.267872
0.281726
0.296121
0.311056
0.326529
0.342536
0.359075
0.376141
0.393731
0.411844
0.430476
0.449625
0.469293
0.489477
0.510181
0.531405
0.553153
0.57543
0.598239
0.621586
0.645478
0.669922
0.694922
0.720487
0.746623
0.773337
0.800633
0.82852
0.857001
0.886082
0.915767
0.946059
0.976962
1.00848
1.0406
1.07334
1.1067
1.14066
1.17522
1.21038
1.24614
1.28248
1.3194
1.35687
1.3949
1.43346
1.47253
1.5121
1.55215
1.59265
1.63358
1.67491
1.71661
1.75865
1.80101
1.84364
1.88651
1.92959
1.97283
2.01619
2.05964
2.10312
2.1466
2.19003
2.23336
2.27655
2.31954
2.36229
2.40475
2.44687
2.48859
2.52986
2.57063
2.61084
2.65045
2.68939
2.72762
2.76508
2.80173
2.8375
2.87235
2.90622
2.93907
2.97084
3.0015
3.03099
3.05928
3.08632
3.11207
3.1365
3.15957
3.18125
3.20152
3.22035
3.23771
3.2536
3.26799
3.28088
3.29226
3.30213
3.31049
3.31734
3.32269
3.32654
3.32878
3.32952
3.32888
3.32682
3.32334
3.3185
3.31231
3.30482
3.29607
3.28609
3.27493
3.26263
3.24924
3.2348
3.21936
3.20295
3.18563
3.16745
3.14844
3.12865
3.10813
3.08692
3.06505
3.04258
3.01953
2.99595
2.97187
2.94731
2.92233
2.89694
2.87119
2.8451
2.81875
2.79218
2.76542
2.73846
2.71131
2.68399
2.65653
2.62898
2.60141
2.57392
2.54666
2.5198
2.49357
2.46705
2.43679
0.0214061
0.0429164
0.0549668
0.0635288
0.0705533
0.0767819
0.0826007
0.0882465
0.0938809
0.0996208
0.105551
0.111732
0.118205
0.124995
0.132119
0.139589
0.147417
0.155616
0.164202
0.173195
0.182614
0.192485
0.202827
0.213662
0.225009
0.236881
0.249291
0.262247
0.275757
0.289823
0.304448
0.319633
0.335378
0.351682
0.368545
0.385966
0.403943
0.422477
0.441567
0.461214
0.481418
0.502183
0.52351
0.545403
0.567866
0.590905
0.614525
0.638733
0.663536
0.688942
0.714959
0.741595
0.768859
0.796758
0.825302
0.854498
0.884354
0.914877
0.946074
0.97795
1.01051
1.04376
1.07771
1.11235
1.14768
1.18372
1.22044
1.25786
1.29597
1.33476
1.37422
1.41434
1.45511
1.49651
1.53853
1.58116
1.62436
1.66811
1.7124
1.75719
1.80245
1.84815
1.89426
1.94073
1.98754
2.03464
2.08199
2.12954
2.17725
2.22507
2.27295
2.32084
2.36869
2.41645
2.46406
2.51147
2.55861
2.60544
2.65189
2.6979
2.74341
2.78837
2.83271
2.87638
2.91931
2.96145
3.00274
3.04311
3.08252
3.12089
3.15819
3.19434
3.22931
3.26303
3.29545
3.32654
3.35624
3.38451
3.4113
3.43659
3.46034
3.48252
3.50309
3.52204
3.53935
3.55499
3.56897
3.58126
3.59187
3.6008
3.60805
3.61363
3.61755
3.61967
3.6202
3.61914
3.61648
3.61226
3.6065
3.59926
3.59056
3.58046
3.56899
3.5562
3.54215
3.52688
3.51044
3.49288
3.47426
3.45463
3.43403
3.41252
3.39014
3.36696
3.34302
3.31835
3.29302
3.26707
3.24053
3.21344
3.18586
3.1578
3.12932
3.10045
3.07123
3.04171
3.01195
2.98197
2.9518
2.92145
2.89095
2.86036
2.82974
2.79917
2.76879
2.73877
2.70932
2.68063
2.65185
2.61997
0.0236761
0.0479578
0.0612771
0.0706966
0.0783894
0.08517
0.0914576
0.0975087
0.103498
0.109552
0.115767
0.122211
0.128937
0.135979
0.143365
0.151114
0.159243
0.167769
0.176711
0.186086
0.195915
0.206217
0.217011
0.228314
0.240143
0.252509
0.265423
0.278894
0.292928
0.307529
0.322702
0.338449
0.354774
0.371676
0.38916
0.407226
0.425876
0.445114
0.464941
0.485363
0.506382
0.528003
0.550233
0.573076
0.59654
0.620633
0.645361
0.670735
0.696763
0.723455
0.750822
0.778875
0.807623
0.837077
0.867248
0.898146
0.929781
0.962162
0.995298
1.0292
1.06387
1.09932
1.13555
1.17256
1.21037
1.24897
1.28835
1.32853
1.36949
1.41122
1.45373
1.49699
1.541
1.58573
1.63118
1.67732
1.72412
1.77157
1.81963
1.86828
1.91747
1.96717
2.01735
2.06796
2.11896
2.1703
2.22194
2.27382
2.3259
2.37811
2.43041
2.48273
2.53502
2.58721
2.63925
2.69107
2.74261
2.7938
2.84457
2.89486
2.94461
2.99373
3.04218
3.08987
3.13676
3.18277
3.22784
3.2719
3.31488
3.35674
3.3974
3.4368
3.47489
3.51161
3.5469
3.58072
3.61301
3.64372
3.67281
3.70025
3.72598
3.74999
3.77224
3.79269
3.81134
3.82816
3.84314
3.85627
3.86755
3.87698
3.88456
3.89029
3.8942
3.89617
3.89639
3.89484
3.89153
3.88649
3.87976
3.87139
3.86142
3.8499
3.83687
3.8224
3.80652
3.78931
3.77081
3.75108
3.73019
3.70817
3.6851
3.66104
3.63603
3.61013
3.5834
3.5559
3.52767
3.49877
3.46924
3.43913
3.40848
3.37735
3.34576
3.31377
3.28142
3.24876
3.21583
3.18269
3.14936
3.11588
3.08229
3.04865
3.01505
2.98158
2.9484
2.91569
2.88366
2.8525
2.8214
2.7879
0.0270124
0.0524474
0.0667218
0.0768268
0.0850696
0.0923136
0.0989985
0.105393
0.111681
0.117997
0.124442
0.131095
0.138015
0.145247
0.152825
0.160775
0.169119
0.177878
0.187069
0.196712
0.206823
0.217421
0.228522
0.24014
0.252289
0.264981
0.278226
0.292033
0.306409
0.32136
0.336893
0.353011
0.369722
0.387028
0.404936
0.42345
0.442575
0.462318
0.482685
0.503681
0.525316
0.547595
0.570528
0.594124
0.618393
0.643344
0.668988
0.695338
0.722404
0.7502
0.778739
0.808034
0.838098
0.868944
0.900586
0.933036
0.966307
1.00041
1.03536
1.07116
1.10783
1.14537
1.18379
1.2231
1.26329
1.30438
1.34637
1.38924
1.43301
1.47766
1.52318
1.56956
1.61678
1.66484
1.71371
1.76337
1.81378
1.86493
1.91678
1.9693
2.02244
2.07616
2.13043
2.1852
2.24041
2.29601
2.35196
2.40818
2.46463
2.52125
2.57796
2.63471
2.69143
2.74805
2.8045
2.86071
2.9166
2.97211
3.02717
3.08169
3.1356
3.18883
3.24131
3.29297
3.34373
3.39353
3.44229
3.48994
3.53642
3.58165
3.62557
3.66811
3.70921
3.74882
3.78686
3.82329
3.85805
3.89109
3.92237
3.95183
3.97944
4.00517
4.02897
4.05083
4.07071
4.0886
4.10448
4.11835
4.1302
4.14003
4.14785
4.15366
4.15746
4.15921
4.15905
4.15694
4.1529
4.14697
4.13921
4.12965
4.11835
4.10536
4.09072
4.0745
4.05677
4.03756
4.01696
3.99502
3.97181
3.94738
3.9218
3.89514
3.86747
3.83883
3.8093
3.77893
3.74778
3.71592
3.68339
3.65026
3.61656
3.58235
3.54768
3.51259
3.47714
3.44137
3.40534
3.3691
3.3327
3.29617
3.25958
3.22299
3.1865
3.15023
3.11434
3.07901
3.04446
3.01083
2.97738
2.94207
0.030173
0.0561473
0.0711653
0.081818
0.0905054
0.0981294
0.105144
0.111826
0.118365
0.124898
0.131535
0.138356
0.145429
0.152804
0.160521
0.168611
0.1771
0.18601
0.195361
0.205169
0.215453
0.226227
0.237507
0.249305
0.261635
0.274508
0.287936
0.301927
0.31649
0.331634
0.347368
0.363698
0.380632
0.39818
0.416349
0.435147
0.454583
0.474666
0.495406
0.516813
0.538898
0.561671
0.585146
0.609333
0.634246
0.659899
0.686306
0.713482
0.74144
0.770198
0.799773
0.830179
0.861434
0.893554
0.926556
0.960454
0.995264
1.031
1.06768
1.10531
1.14391
1.18348
1.22405
1.2656
1.30816
1.35171
1.39628
1.44184
1.48841
1.53596
1.5845
1.63401
1.68447
1.73587
1.78818
1.84137
1.89542
1.95029
2.00595
2.06236
2.11947
2.17723
2.2356
2.29453
2.35395
2.41382
2.47406
2.53461
2.59542
2.6564
2.71749
2.77862
2.83971
2.90068
2.96146
3.02198
3.08214
3.14187
3.20109
3.25973
3.31769
3.37489
3.43127
3.48674
3.54123
3.59465
3.64694
3.69802
3.74781
3.79624
3.84324
3.88874
3.93267
3.97498
4.01559
4.05445
4.0915
4.12669
4.15997
4.19128
4.2206
4.24787
4.27307
4.29617
4.31714
4.33595
4.3526
4.36708
4.37937
4.38949
4.39742
4.4032
4.40681
4.40826
4.40763
4.40487
4.40003
4.39316
4.3843
4.3735
4.36082
4.34631
4.33003
4.31204
4.29241
4.27119
4.24847
4.2243
4.19876
4.17191
4.14382
4.11457
4.08422
4.05285
4.02053
3.98731
3.95327
3.91847
3.88298
3.84685
3.81014
3.7729
3.7352
3.69708
3.65859
3.6198
3.58075
3.54151
3.50213
3.46267
3.42319
3.38378
3.34453
3.30557
3.26706
3.22921
3.1922
3.15616
3.12038
3.08313
0.0330082
0.0590236
0.0745855
0.0856571
0.09469
0.102614
0.109893
0.116808
0.123552
0.130265
0.137058
0.144015
0.151206
0.158685
0.166497
0.174675
0.183247
0.192238
0.201667
0.211553
0.221913
0.23276
0.244111
0.255977
0.268371
0.281306
0.294793
0.308842
0.323464
0.338671
0.354473
0.370881
0.387907
0.405561
0.423856
0.442804
0.462416
0.482706
0.503688
0.525374
0.547779
0.570917
0.594806
0.619462
0.644901
0.671141
0.6982
0.726094
0.754844
0.784469
0.81499
0.846426
0.878798
0.912124
0.946426
0.98172
1.01803
1.05536
1.09374
1.13318
1.1737
1.21531
1.25801
1.30183
1.34675
1.3928
1.43997
1.48825
1.53765
1.58816
1.63976
1.69244
1.74617
1.80095
1.85673
1.9135
1.97121
2.02983
2.08932
2.14963
2.21071
2.27251
2.33497
2.39803
2.46163
2.52571
2.59019
2.655
2.72008
2.78533
2.85069
2.91607
2.9814
3.04658
3.11154
3.17619
3.24044
3.3042
3.36739
3.42992
3.4917
3.55265
3.61269
3.67173
3.72968
3.78648
3.84203
3.89626
3.94909
4.00045
4.05026
4.09844
4.14493
4.18966
4.23257
4.27359
4.31267
4.34975
4.38477
4.4177
4.44848
4.47707
4.50345
4.52757
4.54942
4.56896
4.5862
4.6011
4.61368
4.62393
4.63185
4.63747
4.64078
4.64181
4.64063
4.63714
4.63142
4.62353
4.61353
4.60145
4.58736
4.57131
4.55337
4.53359
4.51206
4.48884
4.46401
4.43763
4.40978
4.38053
4.34997
4.31817
4.2852
4.25115
4.21608
4.18007
4.14321
4.10554
4.06716
4.02811
3.98848
3.94831
3.90767
3.86662
3.82521
3.78351
3.74157
3.69947
3.65726
3.61501
3.57279
3.5307
3.48884
3.44734
3.40636
3.3661
3.32672
3.28837
3.25034
3.21118
0.035479
0.0611117
0.0770305
0.0883994
0.0976821
0.105827
0.113304
0.120398
0.127301
0.134154
0.141067
0.148126
0.155401
0.162949
0.170814
0.179033
0.187637
0.19665
0.206093
0.215985
0.226341
0.237177
0.248508
0.260347
0.272707
0.285601
0.299042
0.313042
0.327617
0.342778
0.358542
0.374922
0.391933
0.40959
0.42791
0.446907
0.466598
0.487001
0.508131
0.530008
0.552648
0.57607
0.600294
0.625343
0.651237
0.677999
0.70565
0.734213
0.76371
0.794167
0.825607
0.858055
0.891533
0.926066
0.961676
0.998384
1.03621
1.07518
1.11531
1.15661
1.1991
1.2428
1.28772
1.33387
1.38125
1.42987
1.47972
1.53081
1.58313
1.63667
1.6914
1.74732
1.8044
1.86261
1.92193
1.9823
2.04371
2.10609
2.16941
2.23361
2.29863
2.36442
2.43091
2.49803
2.56571
2.63389
2.70247
2.77139
2.84056
2.9099
2.97932
3.04873
3.11806
3.18719
3.25605
3.32454
3.39257
3.46004
3.52687
3.59296
3.65822
3.72256
3.78589
3.84812
3.90917
3.96895
4.02738
4.08438
4.13986
4.19375
4.24598
4.29645
4.34512
4.3919
4.43673
4.47955
4.52029
4.55891
4.59535
4.62955
4.66148
4.69109
4.71835
4.74322
4.76568
4.78572
4.8033
4.81843
4.83109
4.84129
4.84903
4.85434
4.85722
4.85771
4.85589
4.85157
4.8449
4.83594
4.82474
4.81136
4.79584
4.77824
4.75865
4.73711
4.71371
4.68852
4.66162
4.63309
4.603
4.57143
4.53848
4.50421
4.46871
4.43207
4.39437
4.35569
4.31611
4.2757
4.23455
4.19273
4.15031
4.10735
4.06393
4.0201
3.97593
3.93149
3.88684
3.84205
3.79719
3.75234
3.70757
3.66299
3.6187
3.57484
3.53156
3.48905
3.44746
3.40693
3.36679
3.32583
0.0375775
0.0624794
0.0785855
0.0901386
0.0995797
0.107868
0.115478
0.122693
0.129705
0.136654
0.143649
0.150774
0.158101
0.165685
0.17357
0.181793
0.190383
0.199366
0.208764
0.218596
0.228879
0.23963
0.250864
0.262596
0.274843
0.287618
0.300936
0.314809
0.329255
0.344293
0.359942
0.37622
0.393147
0.410742
0.429025
0.448016
0.467736
0.488206
0.509448
0.531484
0.554335
0.578022
0.602562
0.62799
0.654334
0.68162
0.709876
0.73913
0.769411
0.800746
0.833165
0.866695
0.901363
0.937196
0.974218
1.01245
1.05193
1.09266
1.13467
1.17797
1.22259
1.26855
1.31584
1.36447
1.41447
1.46581
1.51851
1.57255
1.62792
1.68461
1.7426
1.80187
1.86237
1.92409
1.98698
2.051
2.11611
2.18224
2.24935
2.31737
2.38625
2.45591
2.52628
2.59729
2.66886
2.74091
2.81335
2.8861
2.95907
3.03216
3.1053
3.17838
3.2513
3.32398
3.39631
3.4682
3.53955
3.61026
3.68024
3.74939
3.81762
3.88483
3.95092
4.01582
4.07944
4.14167
4.20245
4.26168
4.31929
4.37519
4.42931
4.48157
4.5319
4.58023
4.6265
4.67064
4.71259
4.7523
4.78971
4.82478
4.85746
4.88771
4.91549
4.94078
4.96354
4.98376
5.00142
5.0165
5.02901
5.03895
5.04633
5.05116
5.05346
5.0533
5.05072
5.04546
5.03778
5.02771
5.01529
5.00058
4.98364
4.96452
4.94331
4.92006
4.89486
4.86778
4.8389
4.80832
4.7761
4.74233
4.70711
4.67052
4.63264
4.59357
4.5534
4.51221
4.47009
4.42712
4.38339
4.33898
4.29397
4.24842
4.20242
4.15603
4.10932
4.06236
4.01522
3.96798
3.92071
3.87349
3.82641
3.77957
3.73308
3.68707
3.64171
3.59715
3.55354
3.51101
3.46896
3.4264
0.0393241
0.0632187
0.0793518
0.0909825
0.100496
0.108853
0.116529
0.123807
0.130877
0.137879
0.144918
0.152078
0.159424
0.167011
0.174882
0.183068
0.191601
0.200506
0.209808
0.219526
0.229679
0.240286
0.251366
0.262935
0.275014
0.287624
0.300792
0.314518
0.328822
0.343726
0.359251
0.37542
0.392257
0.409785
0.428028
0.447013
0.466764
0.487309
0.508673
0.530885
0.55397
0.577956
0.602871
0.628756
0.65564
0.683557
0.71254
0.742623
0.773839
0.806223
0.839807
0.874622
0.910697
0.94806
0.986736
1.02675
1.06813
1.11089
1.15506
1.20065
1.24768
1.29616
1.34609
1.39749
1.45035
1.50467
1.56044
1.61764
1.67626
1.73628
1.79767
1.86039
1.92441
1.98968
2.05617
2.12381
2.19256
2.26235
2.33313
2.40481
2.47734
2.55063
2.6246
2.69918
2.77428
2.84981
2.92569
3.00181
3.07809
3.15444
3.23074
3.30691
3.38285
3.45846
3.53363
3.60827
3.68228
3.75555
3.828
3.89952
3.97001
4.03938
4.10754
4.1744
4.23986
4.30385
4.36627
4.42704
4.48608
4.54332
4.59867
4.65206
4.70342
4.75268
4.79978
4.84466
4.88725
4.92751
4.96538
5.00081
5.03376
5.06419
5.09207
5.11737
5.14006
5.16011
5.17753
5.19228
5.20437
5.21381
5.22061
5.22477
5.22633
5.22543
5.22193
5.21568
5.20693
5.19571
5.18206
5.16605
5.14771
5.12713
5.10437
5.0795
5.05261
5.02376
4.99305
4.96056
4.92638
4.8906
4.8533
4.81458
4.77454
4.73326
4.69083
4.64736
4.60294
4.55766
4.5116
4.46486
4.41751
4.36964
4.32133
4.27265
4.22368
4.17448
4.12514
4.07573
4.02634
3.97704
3.92794
3.87912
3.83071
3.78283
3.73563
3.68927
3.64389
3.59961
3.55587
3.51198
0.040693
0.0633229
0.0793698
0.0910034
0.100524
0.108888
0.116574
0.123864
0.130946
0.137956
0.144995
0.152146
0.159472
0.167027
0.174855
0.182984
0.191445
0.200263
0.209462
0.219064
0.229088
0.239556
0.250487
0.2619
0.273815
0.28625
0.299217
0.312745
0.326864
0.341602
0.356986
0.373047
0.389812
0.407313
0.42558
0.444643
0.464534
0.485285
0.50693
0.529509
0.553049
0.577573
0.60309
0.629662
0.657337
0.686157
0.716161
0.747389
0.779878
0.813673
0.848812
0.885319
0.923224
0.962556
1.00334
1.0456
1.08935
1.13461
1.1814
1.22973
1.27961
1.33105
1.38405
1.4386
1.49469
1.55232
1.61146
1.67209
1.73418
1.79769
1.8626
1.92885
1.99641
2.06521
2.1352
2.20633
2.27853
2.35173
2.42586
2.50085
2.57661
2.65307
2.73014
2.80773
2.88576
2.96414
3.04276
3.12154
3.20038
3.27919
3.35785
3.43628
3.51438
3.59203
3.66915
3.74564
3.82138
3.8963
3.97027
4.04322
4.11505
4.18566
4.25495
4.32285
4.38926
4.45409
4.51727
4.57872
4.63835
4.69608
4.75185
4.80557
4.85719
4.90663
4.95384
4.99876
5.04132
5.08149
5.1192
5.15441
5.18709
5.21719
5.24468
5.26954
5.29173
5.31124
5.32805
5.34215
5.35355
5.36224
5.36823
5.37154
5.37222
5.37049
5.36591
5.35862
5.34877
5.3364
5.32155
5.30428
5.28463
5.26268
5.23849
5.21214
5.18371
5.15328
5.12094
5.08676
5.05085
5.01329
4.97417
4.93359
4.89165
4.84844
4.80407
4.75862
4.71221
4.66492
4.61686
4.56811
4.51876
4.46891
4.41863
4.368
4.31711
4.26602
4.21483
4.1636
4.11244
4.06141
4.01062
3.96017
3.91016
3.86073
3.81202
3.76417
3.7173
3.67155
3.62642
3.58151
0.0418849
0.0631702
0.0790483
0.090601
0.100053
0.108358
0.115992
0.123234
0.130273
0.137243
0.144242
0.151348
0.15862
0.166108
0.173848
0.181872
0.190208
0.198882
0.207917
0.217341
0.227176
0.237447
0.248178
0.259393
0.271118
0.28338
0.29621
0.309635
0.323688
0.338398
0.353799
0.369927
0.386819
0.404515
0.423065
0.442496
0.46284
0.484137
0.506422
0.529716
0.554033
0.579451
0.606037
0.633853
0.662935
0.693325
0.725063
0.758188
0.792737
0.828738
0.86622
0.90522
0.94577
0.987908
1.03165
1.07699
1.12395
1.17253
1.22275
1.27459
1.32806
1.38315
1.43985
1.49813
1.55798
1.61936
1.68225
1.74661
1.81238
1.87954
1.94803
2.01779
2.08877
2.1609
2.23413
2.30839
2.3836
2.45969
2.53659
2.61422
2.69249
2.77133
2.85065
2.93035
3.01036
3.09058
3.17091
3.25127
3.33156
3.41168
3.49154
3.57103
3.65008
3.72856
3.8064
3.88349
3.95974
4.03506
4.10934
4.1825
4.25444
4.32508
4.39433
4.46209
4.52829
4.59285
4.65568
4.71672
4.77587
4.83308
4.88827
4.94136
4.99229
5.04102
5.08747
5.1316
5.17334
5.21265
5.24949
5.28381
5.31556
5.34473
5.37127
5.39516
5.41637
5.43489
5.4507
5.46378
5.47415
5.48179
5.48673
5.48899
5.48868
5.4859
5.48013
5.47174
5.46076
5.44724
5.43122
5.41274
5.39187
5.36866
5.34319
5.31552
5.28574
5.25393
5.22017
5.18455
5.14716
5.1081
5.06745
5.02532
4.9818
4.93699
4.891
4.84393
4.79587
4.74694
4.69724
4.64685
4.59588
4.54441
4.49254
4.44036
4.38793
4.33534
4.28269
4.23004
4.17748
4.12512
4.07302
4.02131
3.97008
3.91945
3.86957
3.82056
3.77253
3.72565
3.67942
3.63384
0.0428868
0.0627419
0.0782734
0.0896399
0.0989378
0.107104
0.114614
0.121745
0.128685
0.135561
0.14247
0.149483
0.156657
0.164036
0.171659
0.179558
0.187767
0.196316
0.205232
0.214542
0.224272
0.234452
0.245113
0.256286
0.268003
0.280298
0.293208
0.306774
0.321047
0.336059
0.351846
0.368455
0.385926
0.404297
0.423581
0.443827