/*--------------------------------*- C++ -*----------------------------------*\
| =========                 |                                                 |
| \\      /  F ield         | OpenFOAM: The Open Source CFD Toolbox           |
|  \\    /   O peration     | Version:  2212                                  |
|   \\  /    A nd           | Website:  www.openfoam.com                      |
|    \\/     M anipulation  |                                                 |
\*---------------------------------------------------------------------------*/
FoamFile
{
    version     2.0;
    format      ascii;
    arch        "LSB;label=32;scalar=64";
    class       volScalarField;
    location    "250";
    object      nut;
}
// * * * * * * * * * * * * * * * * * * * * * * * * * * * * * * * * * * * * * //

dimensions      [0 2 -1 0 0 0 0];

internalField   nonuniform List<scalar> 
12225
(
2.70744e-05
3.55747e-05
4.05232e-05
4.31924e-05
4.44515e-05
4.49643e-05
4.49108e-05
4.48716e-05
4.4503e-05
4.41848e-05
4.38513e-05
4.35232e-05
4.32271e-05
4.29454e-05
4.27117e-05
4.24744e-05
4.23152e-05
4.20878e-05
0.000212993
8.46399e-05
5.59091e-05
4.40563e-05
3.83769e-05
3.53544e-05
3.38476e-05
3.30815e-05
3.28538e-05
3.28739e-05
3.3216e-05
3.36031e-05
3.42306e-05
3.47983e-05
3.55867e-05
3.62273e-05
3.71321e-05
3.76564e-05
0.000656989
0.000306533
0.000194013
0.000142104
0.000113224
9.44974e-05
8.20236e-05
7.3315e-05
6.67999e-05
6.19618e-05
5.80401e-05
5.51134e-05
5.2529e-05
5.07158e-05
4.88962e-05
4.78466e-05
4.63717e-05
4.53781e-05
0.000863003
0.000609451
0.000451622
0.000350847
0.000289299
0.000246498
0.000216681
0.000194295
0.000177762
0.000164289
0.000154046
0.000145063
0.000138198
0.000131727
0.000126851
0.000122047
0.000118085
0.000113622
0.000877431
0.00077641
0.000690862
0.000591932
0.000517323
0.000458093
0.000413479
0.000377228
0.000349672
0.000325962
0.000307901
0.000291295
0.000278926
0.000266581
0.000257894
0.000248187
0.000242294
0.00023323
0.000858411
0.000835293
0.000807286
0.000753097
0.000699391
0.000648247
0.000604835
0.000565863
0.000534206
0.000505358
0.000482493
0.000460719
0.000444084
0.000427073
0.000414982
0.000401063
0.000392753
0.000379934
0.000854258
0.000849543
0.000840712
0.000823039
0.000798601
0.000768464
0.000739182
0.00070955
0.000683358
0.000657721
0.000636207
0.000614794
0.000597706
0.000579778
0.000566558
0.000551116
0.000541628
0.000526691
0.00085239
0.000851591
0.000849792
0.000844527
0.000835946
0.000824519
0.000810178
0.000793463
0.000777243
0.000760011
0.00074456
0.000728286
0.000714568
0.000699757
0.000688193
0.000674679
0.000665722
0.000652007
0.000851903
0.00085148
0.000851079
0.000849881
0.000847545
0.000843616
0.000838592
0.000831271
0.000823646
0.000814989
0.000806298
0.000796548
0.000787795
0.000778063
0.000769856
0.000760446
0.000753327
0.000743473
0.000851815
0.000851373
0.000851074
0.000850609
0.000850035
0.000848808
0.000847331
0.000844857
0.000841997
0.000838303
0.000834502
0.000829861
0.000825422
0.000820269
0.000815574
0.000810251
0.000805601
0.000799748
0.000851799
0.000851356
0.000851021
0.000850623
0.000850325
0.000849823
0.000849338
0.000848517
0.000847605
0.00084626
0.000844872
0.000843007
0.0008412
0.000838881
0.000836817
0.000834099
0.000832042
0.000828842
0.000851792
0.000851359
0.000851001
0.000850611
0.000850306
0.000849938
0.000849631
0.00084921
0.000848815
0.000848233
0.000847676
0.000846875
0.000846137
0.000845091
0.000844212
0.000842914
0.000841974
0.000840423
0.000851787
0.000851362
0.000850989
0.000850607
0.00085028
0.000849936
0.000849644
0.000849319
0.00084904
0.000848697
0.000848398
0.000848001
0.000847658
0.000847179
0.000846786
0.00084621
0.000845771
0.0008451
0.000851783
0.000851364
0.00085098
0.000850604
0.000850263
0.000849925
0.000849622
0.000849315
0.000849043
0.000848758
0.000848506
0.000848232
0.00084799
0.000847714
0.000847472
0.000847185
0.000846936
0.000846635
0.000851781
0.000851364
0.000850974
0.0008506
0.000850251
0.000849916
0.000849602
0.0008493
0.000849018
0.000848744
0.000848488
0.000848238
0.000848004
0.000847773
0.000847556
0.00084734
0.000847136
0.000846932
0.00085178
0.000851363
0.00085097
0.000850596
0.000850242
0.000849906
0.000849588
0.000849285
0.000848998
0.000848724
0.000848463
0.000848213
0.000847976
0.000847748
0.000847531
0.000847322
0.000847123
0.000846931
0.000851779
0.000851362
0.000850967
0.000850592
0.000850236
0.000849899
0.000849578
0.000849273
0.000848984
0.000848707
0.000848444
0.000848192
0.000847952
0.000847722
0.000847502
0.000847292
0.00084709
0.000846898
0.000851779
0.000851362
0.000850965
0.000850589
0.000850233
0.000849894
0.000849572
0.000849265
0.000848974
0.000848696
0.00084843
0.000848177
0.000847935
0.000847703
0.000847481
0.000847269
0.000847066
0.000846871
0.000851779
0.000851362
0.000850965
0.000850589
0.000850232
0.000849892
0.00084957
0.000849262
0.00084897
0.000848691
0.000848424
0.00084817
0.000847927
0.000847694
0.000847471
0.000847258
0.000847054
0.000846858
0.000851779
0.000851362
0.000850966
0.000850591
0.000850234
0.000849895
0.000849573
0.000849266
0.000848973
0.000848695
0.000848428
0.000848174
0.00084793
0.000847697
0.000847473
0.000847259
0.000847052
0.000846855
0.000851779
0.000851364
0.000850968
0.000850595
0.000850238
0.000849902
0.000849578
0.000849274
0.000848979
0.0008487
0.000848427
0.000848168
0.000847911
0.000847667
0.00084742
0.000847187
0.000846947
0.000846723
0.000851778
0.000851367
0.000850969
0.000850603
0.000850243
0.00084991
0.000849573
0.000849254
0.000848916
0.000848587
0.000848223
0.000847865
0.000847456
0.00084706
0.000846596
0.00084616
0.000845637
0.00084517
0.000851779
0.000851381
0.000850972
0.000850624
0.000850209
0.000849789
0.000849233
0.000848616
0.000847803
0.000846896
0.000845768
0.00084456
0.000843125
0.000841663
0.000839959
0.000838332
0.000836385
0.000834698
0.000851855
0.000851467
0.000850932
0.000850394
0.000849126
0.000847458
0.000844947
0.00084194
0.000838072
0.000833848
0.00082896
0.000823929
0.000818453
0.000812997
0.000807277
0.000801726
0.000795841
0.000790773
0.000852785
0.00085138
0.000849189
0.000845095
0.000836884
0.000827817
0.000815748
0.000802823
0.000788373
0.000774369
0.000759662
0.000746077
0.000732118
0.000719683
0.000706819
0.000695842
0.000684087
0.000674694
0.000858211
0.000842299
0.000828961
0.000803015
0.000769257
0.000735475
0.000700803
0.000669705
0.000639499
0.000613594
0.000588613
0.000567745
0.000547316
0.000530659
0.000513866
0.00050061
0.000486567
0.000476067
0.000864337
0.000785613
0.000712709
0.000628304
0.00055828
0.00050309
0.000455748
0.000418868
0.000386625
0.000361594
0.000338764
0.000321228
0.000304415
0.000291772
0.000278911
0.000269548
0.000259369
0.000252304
0.000775957
0.000540063
0.000397942
0.000312965
0.000258158
0.000219635
0.000190507
0.000169565
0.000152553
0.000139992
0.000129095
0.000121017
0.000113528
0.000108076
0.000102634
9.88115e-05
9.46876e-05
9.19149e-05
0.000323583
0.000164841
0.000111417
8.60758e-05
7.08266e-05
6.13546e-05
5.50185e-05
5.08856e-05
4.79533e-05
4.60098e-05
4.45906e-05
4.36882e-05
4.30394e-05
4.2695e-05
4.24553e-05
4.24393e-05
4.2436e-05
4.26226e-05
3.26574e-05
3.90518e-05
4.3892e-05
4.69715e-05
4.93654e-05
5.11699e-05
5.25343e-05
5.34595e-05
5.41141e-05
5.44634e-05
5.46907e-05
5.46975e-05
5.46544e-05
5.45501e-05
5.43772e-05
5.41699e-05
5.3945e-05
5.37084e-05
3.08877e-06
8.4719e-06
1.01319e-05
1.14497e-05
1.24686e-05
1.32607e-05
1.38855e-05
1.43858e-05
1.48153e-05
1.52187e-05
1.56005e-05
1.59749e-05
1.63535e-05
1.67422e-05
1.7142e-05
1.75529e-05
1.79813e-05
1.84539e-05
1.90263e-05
1.96978e-05
2.04289e-05
2.12034e-05
2.20197e-05
2.2881e-05
2.37906e-05
2.47506e-05
2.5755e-05
2.6799e-05
2.7877e-05
2.89835e-05
3.01137e-05
3.12587e-05
3.24112e-05
3.35669e-05
3.47207e-05
3.58693e-05
3.70106e-05
3.81434e-05
3.9267e-05
4.03817e-05
4.14881e-05
4.25881e-05
4.36842e-05
4.47805e-05
4.58823e-05
4.69975e-05
4.81445e-05
4.92708e-05
5.03995e-05
5.15205e-05
5.26392e-05
5.37538e-05
5.48656e-05
5.59745e-05
5.7081e-05
5.81852e-05
5.92871e-05
6.03871e-05
6.14849e-05
6.25808e-05
6.36744e-05
6.4766e-05
6.5855e-05
6.69416e-05
6.80253e-05
6.9106e-05
7.01831e-05
7.12566e-05
7.23259e-05
7.33906e-05
7.44503e-05
7.55046e-05
7.65529e-05
7.75948e-05
7.86296e-05
7.9657e-05
8.06761e-05
8.16868e-05
8.2688e-05
8.36796e-05
8.46606e-05
8.56307e-05
8.6589e-05
8.75351e-05
8.84683e-05
8.93879e-05
9.02933e-05
9.11839e-05
9.20589e-05
9.29178e-05
9.37596e-05
9.45836e-05
9.5389e-05
9.61747e-05
9.69396e-05
9.76825e-05
9.84022e-05
9.90974e-05
9.97671e-05
0.000100411
0.000101032
0.000101638
0.000102216
0.000102773
0.000103306
0.000103815
0.0001043
0.000104761
0.000105197
0.000105608
0.000105993
0.000106353
0.000106685
0.000106992
0.000107271
0.000107523
0.000107748
0.000107946
0.000108116
0.000108258
0.000108372
0.000108458
0.000108516
0.000108547
0.000108549
0.000108524
0.000108472
0.000108393
0.000108286
0.000108152
0.000107997
0.000107813
0.000107601
0.000107356
0.000107092
0.00010681
0.000106499
0.000106167
0.000105811
0.000105433
0.000105035
0.000104617
0.000104179
0.000103723
0.000103249
0.000102759
0.000102252
0.00010173
0.000101193
0.000100643
0.00010008
9.95047e-05
9.8918e-05
9.83206e-05
9.77134e-05
9.7097e-05
9.6472e-05
9.58391e-05
9.5199e-05
9.45521e-05
9.38992e-05
9.32406e-05
9.25773e-05
9.19102e-05
9.12426e-05
9.0598e-05
9.01308e-05
8.97667e-05
8.94114e-05
8.90564e-05
8.87005e-05
8.8343e-05
8.79829e-05
8.76185e-05
8.72466e-05
8.68617e-05
8.64527e-05
8.59899e-05
8.54032e-05
8.36021e-05
4.8597e-06
2.07341e-05
4.56483e-05
6.65935e-05
8.15951e-05
9.18991e-05
9.89901e-05
0.000103754
0.000106733
0.000108702
0.000110442
0.000112286
0.000114306
0.000116448
0.000118609
0.000120682
0.00012258
0.000124243
0.000125698
0.000127046
0.000128363
0.000129739
0.000131256
0.000132997
0.000135071
0.000137635
0.000140632
0.000144049
0.000147885
0.00015213
0.000156768
0.000161783
0.000167178
0.000172923
0.000179029
0.000185431
0.000192097
0.000198996
0.000206097
0.000213367
0.000220776
0.000228292
0.000235887
0.000243533
0.00025121
0.000258905
0.000266631
0.000274427
0.000282268
0.000290172
0.000298133
0.000306159
0.000314249
0.000322407
0.000330636
0.00033894
0.00034732
0.000355781
0.000364324
0.000372953
0.000381669
0.000390476
0.000399374
0.000408365
0.000417452
0.000426634
0.000435911
0.000445284
0.000454752
0.000464313
0.000473967
0.00048371
0.000493542
0.000503457
0.000513455
0.00052353
0.00053368
0.000543898
0.000554182
0.000564525
0.000574923
0.000585369
0.000595859
0.000606386
0.000616944
0.000627527
0.000638128
0.000648742
0.000659361
0.000669981
0.000680595
0.000691199
0.000701785
0.000712348
0.000722877
0.000733361
0.000743776
0.000754085
0.000764221
0.000774064
0.000783416
0.000792046
0.000800645
0.000809087
0.000817395
0.000825558
0.00083357
0.000841423
0.000849111
0.000856625
0.000863959
0.000871106
0.000878057
0.000884808
0.00089135
0.000897678
0.000903786
0.000909668
0.000915318
0.000920732
0.000925904
0.000930831
0.000935509
0.000939935
0.000944106
0.000948019
0.000951675
0.000955073
0.000958216
0.000961102
0.000963716
0.000966114
0.000968342
0.00097013
0.0009716
0.000972965
0.000974062
0.000974904
0.000975503
0.000975868
0.000976005
0.00097592
0.000975617
0.000975099
0.000974373
0.000973453
0.000972344
0.000971055
0.000969591
0.000967962
0.000966174
0.000964235
0.000962151
0.000959931
0.000957581
0.000955108
0.000952519
0.000949818
0.000947013
0.000944106
0.000941103
0.000938005
0.000934809
0.000931501
0.000928009
0.000923978
0.000918133
0.000911148
0.000903801
0.00089629
0.000888662
0.00088093
0.00087309
0.00086513
0.000857013
0.000848691
0.000840012
0.000830714
0.000819321
0.000791795
6.21328e-06
3.16371e-05
7.14206e-05
0.000107007
0.000134925
0.000155638
0.000170621
0.000181395
0.000189158
0.000194925
0.000199525
0.000203531
0.000207284
0.000210951
0.000214592
0.000218211
0.000221802
0.00022537
0.000228955
0.000232686
0.000236748
0.000241253
0.000246291
0.000251929
0.000258187
0.000265003
0.000272485
0.000280677
0.000289582
0.000299183
0.000309447
0.000320319
0.000331956
0.000344554
0.0003577
0.000371274
0.00038522
0.00039949
0.000414035
0.000428815
0.000443797
0.00045895
0.000474246
0.000489666
0.000505196
0.000520826
0.00053655
0.000552394
0.000568351
0.00058443
0.00060063
0.000616958
0.000633418
0.000650014
0.00066675
0.000683632
0.000700663
0.000717848
0.000735191
0.000752695
0.000770362
0.000788194
0.000806191
0.000824355
0.00084269
0.000861195
0.000879868
0.000898706
0.000917708
0.000936868
0.000956183
0.000975646
0.000995252
0.00101499
0.00103486
0.00105485
0.00107496
0.00109516
0.00111545
0.00113583
0.00115628
0.00117678
0.00119734
0.00121792
0.00123853
0.00125915
0.00127977
0.00130037
0.00132094
0.00134146
0.00136193
0.00138232
0.00140262
0.00142281
0.00144285
0.00146273
0.00148239
0.00150178
0.00152082
0.00153943
0.00155751
0.00157515
0.00159256
0.00160969
0.00162653
0.00164306
0.00165928
0.00167516
0.00169069
0.00170585
0.00172064
0.00173503
0.00174901
0.00176257
0.0017757
0.00178838
0.0018006
0.00181235
0.00182362
0.00183439
0.00184467
0.00185444
0.00186369
0.00187241
0.00188061
0.00188828
0.00189541
0.001902
0.00190806
0.00191359
0.00191859
0.0019231
0.00192727
0.00193066
0.00193333
0.00193569
0.00193749
0.0019388
0.00193961
0.00193994
0.00193979
0.00193918
0.00193811
0.00193661
0.00193468
0.00193234
0.00192961
0.0019265
0.00192302
0.0019192
0.00191504
0.00191056
0.00190578
0.00190071
0.00189536
0.00188975
0.00188388
0.00187778
0.00187145
0.0018649
0.00185814
0.00185118
0.001844
0.00183659
0.00182884
0.00182037
0.00181019
0.00179869
0.00178652
0.00177398
0.00176116
0.00174809
0.00173479
0.00172124
0.00170735
0.00169303
0.00167802
0.00166153
0.00164076
0.00159813
7.14975e-06
4.3756e-05
9.56864e-05
0.000141098
0.00017702
0.000204215
0.000224359
0.000239144
0.00025006
0.000258352
0.000265005
0.000270747
0.000276079
0.000281315
0.000286641
0.000292164
0.000297957
0.00030409
0.000310644
0.000317718
0.00032542
0.000333834
0.000343032
0.000353063
0.000363958
0.000375736
0.000388426
0.00040204
0.000416571
0.000432005
0.000448329
0.000465548
0.000483441
0.000501699
0.000520447
0.000539671
0.000559317
0.000579328
0.000599649
0.000620219
0.000641048
0.00066211
0.000683389
0.000704875
0.000726576
0.000748518
0.000770692
0.000793042
0.000815563
0.000838258
0.000861132
0.00088419
0.000907436
0.000930875
0.000954513
0.000978354
0.0010024
0.00102666
0.00105113
0.00107583
0.00110075
0.00112589
0.00115126
0.00117685
0.00120267
0.0012287
0.00125496
0.00128142
0.0013081
0.00133497
0.00136204
0.00138929
0.00141672
0.00144431
0.00147205
0.00149993
0.00152794
0.00155606
0.00158428
0.00161259
0.00164096
0.00166939
0.00169785
0.00172633
0.00175481
0.00178328
0.0018117
0.00184007
0.00186836
0.00189655
0.00192463
0.00195256
0.00198032
0.00200788
0.00203521
0.00206227
0.00208901
0.0021154
0.00214136
0.00216683
0.00219183
0.00221642
0.00224064
0.00226447
0.0022879
0.0023109
0.00233345
0.00235554
0.00237714
0.00239823
0.00241879
0.00243881
0.00245826
0.00247713
0.0024954
0.00251305
0.00253007
0.00254644
0.00256214
0.00257717
0.00259151
0.00260514
0.00261807
0.00263027
0.00264174
0.00265248
0.00266248
0.00267173
0.00268024
0.00268802
0.00269506
0.00270149
0.00270742
0.00271224
0.00271605
0.00271946
0.00272207
0.002724
0.00272524
0.00272579
0.00272569
0.00272493
0.00272354
0.00272154
0.00271894
0.00271576
0.00271203
0.00270777
0.00270299
0.00269771
0.00269196
0.00268576
0.00267912
0.00267206
0.00266461
0.00265679
0.0026486
0.00264007
0.00263121
0.00262203
0.00261255
0.00260277
0.0025927
0.0025823
0.00257147
0.00255993
0.00254709
0.00253308
0.00251829
0.002503
0.0024873
0.00247127
0.00245491
0.00243821
0.00242118
0.00240365
0.00238525
0.002365
0.00233959
0.00229396
7.80303e-06
5.51281e-05
0.000117889
0.000171452
0.000213863
0.000246149
0.000270371
0.000288473
0.000302141
0.000312777
0.000321496
0.000329146
0.000336334
0.000343476
0.000350843
0.000358608
0.000366893
0.00037579
0.000385385
0.000395758
0.000406984
0.000419126
0.000432232
0.000446333
0.000461448
0.000477582
0.000494727
0.000512863
0.000531954
0.000551951
0.000572791
0.000594395
0.00061665
0.000639462
0.000662807
0.000686652
0.000710951
0.000735665
0.000760763
0.000786232
0.000812005
0.000838055
0.000864361
0.000890907
0.000917675
0.000944635
0.000971775
0.000999132
0.00102671
0.00105452
0.00108255
0.00111082
0.00113933
0.00116808
0.00119708
0.00122632
0.00125582
0.00128556
0.00131555
0.0013458
0.00137632
0.0014071
0.00143814
0.00146944
0.00150099
0.00153279
0.00156484
0.00159713
0.00162964
0.00166237
0.0016953
0.00172844
0.00176175
0.00179523
0.00182887
0.00186265
0.00189655
0.00193055
0.00196464
0.0019988
0.00203301
0.00206724
0.00210149
0.00213572
0.00216993
0.00220407
0.00223814
0.0022721
0.00230594
0.00233963
0.00237314
0.00240645
0.00243952
0.00247233
0.00250484
0.00253702
0.00256884
0.00260025
0.00263123
0.00266178
0.00269187
0.00272152
0.00275072
0.00277945
0.0028077
0.00283545
0.00286266
0.00288931
0.00291539
0.00294087
0.00296573
0.00298994
0.00301348
0.00303634
0.0030585
0.00307992
0.00310061
0.00312052
0.00313966
0.003158
0.00317553
0.00319224
0.0032081
0.00322312
0.00323728
0.00325056
0.00326298
0.00327451
0.00328516
0.00329494
0.00330386
0.00331218
0.00331963
0.00332587
0.00333103
0.00333559
0.00333927
0.00334209
0.00334409
0.00334526
0.00334564
0.00334524
0.00334407
0.00334216
0.00333953
0.00333621
0.00333221
0.00332755
0.00332227
0.00331639
0.00330992
0.0033029
0.00329534
0.00328727
0.00327872
0.0032697
0.00326023
0.00325034
0.00324004
0.00322935
0.00321829
0.00320686
0.00319506
0.00318288
0.00317023
0.00315694
0.00314268
0.00312745
0.00311146
0.00309491
0.00307789
0.00306046
0.00304265
0.00302445
0.00300582
0.00298664
0.00296657
0.0029446
0.00291749
0.00287379
8.27187e-06
6.55741e-05
0.00013787
0.000198599
0.000246703
0.000283604
0.000311607
0.000332877
0.000349257
0.000362275
0.000373151
0.00038283
0.000392006
0.000401172
0.000410662
0.0004207
0.000431437
0.000442979
0.000455408
0.00046879
0.000483176
0.000498606
0.000515103
0.00053268
0.000551333
0.000571045
0.000591787
0.000613519
0.000636187
0.000659732
0.000684084
0.000709171
0.000734918
0.000761266
0.000788169
0.000815585
0.000843475
0.000871798
0.000900523
0.000929618
0.000959048
0.000988787
0.00101882
0.00104912
0.00107968
0.00111049
0.00114154
0.00117285
0.00120441
0.00123624
0.00126832
0.00130066
0.00133327
0.00136615
0.0013993
0.00143273
0.00146643
0.00150042
0.0015347
0.00156925
0.00160407
0.00163917
0.00167452
0.00171014
0.00174601
0.00178213
0.00181848
0.00185507
0.00189188
0.00192889
0.00196611
0.0020035
0.00204107
0.00207879
0.00211665
0.00215463
0.00219271
0.00223088
0.00226911
0.0023074
0.00234571
0.00238402
0.00242232
0.00246058
0.00249879
0.00253691
0.00257492
0.0026128
0.00265053
0.00268807
0.00272541
0.00276251
0.00279935
0.00283589
0.00287211
0.00290798
0.00294346
0.00297854
0.00301319
0.00304739
0.00308113
0.00311439
0.00314717
0.00317944
0.00321117
0.00324235
0.00327295
0.00330295
0.00333232
0.00336103
0.00338907
0.00341641
0.00344303
0.0034689
0.00349401
0.00351833
0.00354183
0.00356451
0.00358634
0.00360731
0.00362739
0.00364657
0.00366483
0.00368217
0.00369857
0.00371402
0.0037285
0.00374203
0.00375458
0.00376616
0.00377687
0.00378692
0.00379582
0.00380345
0.00381006
0.00381587
0.00382072
0.00382461
0.00382758
0.00382963
0.00383078
0.00383106
0.00383049
0.00382907
0.00382685
0.00382384
0.00382007
0.00381555
0.00381032
0.00380441
0.00379783
0.00379062
0.00378281
0.0037744
0.00376545
0.00375595
0.00374595
0.00373546
0.00372451
0.0037131
0.00370127
0.00368901
0.00367635
0.00366326
0.0036497
0.00363555
0.00362064
0.00360494
0.00358854
0.00357156
0.0035541
0.0035362
0.00351789
0.00349919
0.00348008
0.00346046
0.00344004
0.00341787
0.00339111
0.00335122
8.61635e-06
7.48172e-05
0.000155206
0.0002223
0.00027564
0.00031698
0.00034875
0.000373259
0.000392466
0.000407994
0.000421151
0.00043296
0.000444189
0.000455396
0.000466968
0.000479172
0.000492181
0.000506115
0.00052105
0.000537042
0.000554124
0.000572315
0.000591621
0.000612034
0.000633532
0.000656086
0.000679654
0.000704186
0.000729625
0.000755909
0.000782976
0.000810763
0.000839211
0.000868266
0.000897884
0.000928023
0.000958643
0.000989709
0.00102119
0.00105305
0.00108527
0.00111783
0.0011507
0.00118387
0.00121733
0.00125108
0.0012851
0.0013194
0.00135398
0.00138882
0.00142394
0.00145934
0.00149501
0.00153095
0.00156718
0.00160368
0.00164046
0.00167753
0.00171487
0.00175248
0.00179036
0.0018285
0.0018669
0.00190555
0.00194445
0.00198358
0.00202294
0.00206252
0.00210231
0.0021423
0.00218246
0.0022228
0.00226329
0.00230393
0.00234468
0.00238555
0.0024265
0.00246752
0.0025086
0.00254971
0.00259083
0.00263194
0.00267302
0.00271405
0.00275501
0.00279587
0.00283661
0.0028772
0.00291763
0.00295786
0.00299787
0.00303763
0.00307712
0.00311631
0.00315517
0.00319368
0.0032318
0.00326952
0.00330681
0.00334365
0.00338003
0.00341593
0.00345132
0.00348618
0.00352049
0.00355423
0.00358737
0.00361988
0.00365174
0.00368293
0.00371342
0.00374318
0.00377219
0.00380043
0.00382788
0.00385451
0.00388029
0.00390522
0.00392926
0.0039524
0.00397461
0.00399589
0.0040162
0.00403555
0.00405391
0.00407126
0.00408761
0.00410294
0.00411724
0.00413051
0.00414297
0.00415448
0.00416488
0.00417394
0.00418203
0.00418915
0.00419525
0.00420032
0.00420439
0.00420748
0.00420961
0.00421078
0.00421103
0.00421037
0.00420884
0.00420644
0.00420321
0.00419917
0.00419436
0.00418879
0.00418251
0.00417552
0.00416787
0.00415958
0.00415067
0.00414118
0.00413114
0.00412055
0.00410946
0.00409787
0.00408581
0.0040733
0.00406034
0.00404694
0.00403307
0.00401865
0.00400361
0.00398789
0.00397155
0.00395467
0.00393729
0.00391949
0.00390128
0.00388271
0.00386377
0.00384441
0.0038244
0.00380293
0.0037776
0.00374195
9.03524e-06
8.09931e-05
0.00016836
0.000241645
0.000300186
0.000346068
0.000381746
0.000409652
0.000431844
0.000450029
0.000465588
0.000479608
0.000492922
0.000506142
0.000519706
0.000533912
0.000548963
0.000564988
0.000582066
0.000600245
0.000619547
0.000639978
0.000661528
0.000684177
0.000707896
0.000732645
0.00075838
0.000785045
0.000812584
0.000840937
0.000870048
0.000899861
0.000930324
0.000961388
0.000993012
0.00102515
0.00105778
0.00109085
0.00112435
0.00115824
0.00119249
0.0012271
0.00126203
0.00129729
0.00133286
0.00136873
0.0014049
0.00144134
0.00147806
0.00151505
0.00155231
0.00158984
0.00162764
0.00166571
0.00170405
0.00174265
0.00178152
0.00182065
0.00186005
0.0018997
0.0019396
0.00197975
0.00202014
0.00206076
0.00210161
0.00214269
0.00218398
0.00222547
0.00226715
0.00230902
0.00235105
0.00239325
0.00243559
0.00247806
0.00252064
0.00256332
0.00260609
0.00264892
0.0026918
0.00273471
0.00277764
0.00282055
0.00286344
0.00290627
0.00294904
0.00299171
0.00303426
0.00307668
0.00311893
0.003161
0.00320285
0.00324447
0.00328582
0.00332689
0.00336764
0.00340805
0.0034481
0.00348776
0.003527
0.00356582
0.00360418
0.00364206
0.00367943
0.00371629
0.0037526
0.00378833
0.00382346
0.00385796
0.00389182
0.00392499
0.00395747
0.00398921
0.0040202
0.00405041
0.00407982
0.0041084
0.00413613
0.00416299
0.00418895
0.00421399
0.00423809
0.00426123
0.00428339
0.00430455
0.0043247
0.00434382
0.00436191
0.00437893
0.00439489
0.00440981
0.00442392
0.00443686
0.00444876
0.00445929
0.00446887
0.00447736
0.00448476
0.00449109
0.00449637
0.0045006
0.00450382
0.00450603
0.00450725
0.00450752
0.00450684
0.00450525
0.00450277
0.00449943
0.00449526
0.00449028
0.00448453
0.00447803
0.00447082
0.00446292
0.00445437
0.00444519
0.00443541
0.00442505
0.00441416
0.00440274
0.00439082
0.00437841
0.00436555
0.00435222
0.00433843
0.00432413
0.00430929
0.00429387
0.00427789
0.00426141
0.00424447
0.00422711
0.00420938
0.00419133
0.00417298
0.00415432
0.00413518
0.0041149
0.00409156
0.00406097
9.65337e-06
8.35907e-05
0.000176816
0.000256268
0.000320085
0.000370671
0.000410412
0.000441862
0.000467178
0.000488141
0.000506193
0.00052248
0.000537884
0.000553067
0.000568509
0.000584542
0.000601394
0.000619208
0.000638072
0.000658035
0.000679113
0.000701303
0.000724584
0.00074893
0.000774308
0.000800684
0.000828023
0.000856257
0.000885326
0.000915173
0.000945744
0.000976991
0.00100886
0.00104132
0.00107432
0.00110783
0.00114181
0.00117623
0.00121107
0.00124629
0.00128188
0.00131782
0.00135409
0.00139069
0.00142761
0.00146486
0.0015024
0.00154021
0.00157827
0.00161659
0.00165516
0.00169398
0.00173305
0.00177236
0.00181192
0.00185172
0.00189176
0.00193205
0.00197257
0.00201333
0.00205432
0.00209553
0.00213697
0.00217863
0.0022205
0.00226257
0.00230485
0.00234732
0.00238997
0.0024328
0.0024758
0.00251895
0.00256225
0.00260569
0.00264924
0.0026929
0.00273666
0.00278049
0.00282438
0.00286832
0.0029123
0.00295628
0.00300025
0.00304419
0.00308809
0.00313192
0.00317566
0.00321928
0.00326277
0.0033061
0.00334924
0.00339218
0.00343488
0.00347733
0.00351949
0.00356134
0.00360285
0.00364401
0.00368478
0.00372514
0.00376507
0.00380454
0.00384353
0.00388201
0.00391995
0.00395734
0.00399414
0.00403033
0.00406588
0.00410076
0.00413495
0.00416842
0.00420115
0.0042331
0.00426425
0.00429459
0.00432407
0.00435268
0.00438039
0.00440719
0.00443303
0.00445792
0.00448181
0.0045047
0.00452656
0.00454738
0.00456713
0.00458581
0.0046034
0.00462
0.00463561
0.00465008
0.00466344
0.00467552
0.00468659
0.0046965
0.00470527
0.00471292
0.00471948
0.00472494
0.00472934
0.00473269
0.004735
0.0047363
0.00473661
0.00473596
0.00473437
0.00473188
0.0047285
0.00472426
0.00471921
0.00471338
0.00470678
0.00469946
0.00469145
0.00468278
0.00467348
0.00466357
0.0046531
0.00464207
0.00463053
0.00461849
0.00460597
0.00459298
0.00457954
0.00456562
0.00455121
0.00453629
0.00452088
0.00450501
0.00448872
0.00447205
0.00445505
0.00443778
0.00442028
0.00440259
0.00438458
0.00436575
0.00434458
0.00431857
1.02085e-05
8.46182e-05
0.000182153
0.000266982
0.000335717
0.00039089
0.000434688
0.00046973
0.000498234
0.000522037
0.000542629
0.000561198
0.00057867
0.000595746
0.000612942
0.000630627
0.000649046
0.000668361
0.000688674
0.00071005
0.00073252
0.000756056
0.000780622
0.000806174
0.000832654
0.000859969
0.000888198
0.000917286
0.000947182
0.000977837
0.0010092
0.00104123
0.00107388
0.00110711
0.00114089
0.00117517
0.00120993
0.00124515
0.00128078
0.0013168
0.0013532
0.00138994
0.00142702
0.00146442
0.0015021
0.00154002
0.0015782
0.00161664
0.00165528
0.00169414
0.00173321
0.00177248
0.00181197
0.00185168
0.0018916
0.00193173
0.00197208
0.00201265
0.00205342
0.00209441
0.00213562
0.00217703
0.00221866
0.00226049
0.00230253
0.00234478
0.00238722
0.00242987
0.0024727
0.00251573
0.00255893
0.00260231
0.00264586
0.00268956
0.00273342
0.00277741
0.00282152
0.00286575
0.00291008
0.0029545
0.00299898
0.00304352
0.00308809
0.00313267
0.00317726
0.00322182
0.00326633
0.00331078
0.00335513
0.00339937
0.00344347
0.00348741
0.00353116
0.00357469
0.00361797
0.00366099
0.00370372
0.00374612
0.00378817
0.00382984
0.00387112
0.00391196
0.00395235
0.00399226
0.00403166
0.00407052
0.00410882
0.00414653
0.00418361
0.00422005
0.00425582
0.00429088
0.00432521
0.00435879
0.00439158
0.00442356
0.0044547
0.00448498
0.00451438
0.00454285
0.00457039
0.00459696
0.00462254
0.00464711
0.00467066
0.00469315
0.00471457
0.00473491
0.00475414
0.00477238
0.0047895
0.00480553
0.00482042
0.00483412
0.00484672
0.00485811
0.0048683
0.00487733
0.00488523
0.00489201
0.00489767
0.00490224
0.00490574
0.00490818
0.00490958
0.00490997
0.00490938
0.00490784
0.00490537
0.00490201
0.00489778
0.00489273
0.00488689
0.00488028
0.00487295
0.00486493
0.00485626
0.00484695
0.00483706
0.00482659
0.0048156
0.00480409
0.0047921
0.00477964
0.00476674
0.00475338
0.00473957
0.00472532
0.00471062
0.00469552
0.00468003
0.00466421
0.00464812
0.0046318
0.00461535
0.00459878
0.00458207
0.00456478
0.00454577
0.00452365
1.06832e-05
8.45935e-05
0.000185074
0.000274343
0.000347459
0.000406905
0.000454608
0.000493172
0.000524838
0.000551468
0.000574585
0.000595407
0.000614888
0.000633759
0.000652572
0.000671744
0.000691522
0.000712061
0.000733435
0.000755643
0.000778821
0.000802996
0.00082816
0.000854289
0.000881359
0.000909377
0.000938296
0.000968026
0.000998507
0.00102969
0.00106152
0.00109397
0.00112699
0.00116054
0.00119459
0.0012291
0.00126404
0.00129938
0.00133508
0.00137114
0.00140752
0.00144419
0.00148115
0.00151838
0.0015559
0.00159373
0.00163189
0.00167024
0.0017087
0.00174729
0.00178603
0.00182493
0.00186399
0.00190323
0.00194265
0.00198225
0.00202205
0.00206204
0.00210223
0.00214262
0.00218321
0.00222402
0.00226504
0.00230629
0.00234775
0.00238943
0.00243135
0.00247349
0.00251585
0.00255844
0.00260126
0.0026443
0.00268755
0.00273101
0.00277468
0.00281854
0.00286259
0.00290681
0.0029512
0.00299573
0.0030404
0.00308518
0.00313007
0.00317503
0.00322005
0.00326512
0.00331019
0.00335526
0.0034003
0.00344529
0.00349018
0.00353497
0.00357962
0.00362411
0.0036684
0.00371247
0.00375629
0.00379983
0.00384306
0.00388595
0.00392847
0.0039706
0.00401231
0.00405356
0.00409433
0.00413459
0.00417431
0.00421347
0.00425203
0.00428996
0.00432725
0.00436384
0.00439973
0.00443488
0.00446927
0.00450286
0.00453563
0.00456755
0.00459859
0.00462873
0.00465793
0.00468618
0.00471345
0.00473971
0.00476494
0.00478912
0.00481223
0.00483424
0.00485516
0.004875
0.00489373
0.00491137
0.00492788
0.0049432
0.00495744
0.00497037
0.00498203
0.00499253
0.00500186
0.00501002
0.00501704
0.00502293
0.0050277
0.00503137
0.00503396
0.0050355
0.00503601
0.00503552
0.00503407
0.00503168
0.00502839
0.00502424
0.00501926
0.00501348
0.00500695
0.0049997
0.00499177
0.0049832
0.00497401
0.00496424
0.00495392
0.00494309
0.00493178
0.00492
0.00490778
0.00489513
0.00488207
0.00486861
0.00485476
0.00484054
0.00482599
0.00481116
0.0047961
0.00478088
0.00476558
0.00475027
0.00473493
0.00471924
0.00470232
0.00468354
1.10813e-05
8.37562e-05
0.000185977
0.000278726
0.000355696
0.000418894
0.000470249
0.000512165
0.000546873
0.000576238
0.000601794
0.000624792
0.00064619
0.000666704
0.000686855
0.00070697
0.000727516
0.000748712
0.000770712
0.000793653
0.00081758
0.000842436
0.000868196
0.000894839
0.000922338
0.00095065
0.000979687
0.00100942
0.00103982
0.00107085
0.00110247
0.00113463