/*--------------------------------*- C++ -*----------------------------------*\
| =========                 |                                                 |
| \\      /  F ield         | OpenFOAM: The Open Source CFD Toolbox           |
|  \\    /   O peration     | Version:  2212                                  |
|   \\  /    A nd           | Website:  www.openfoam.com                      |
|    \\/     M anipulation  |                                                 |
\*---------------------------------------------------------------------------*/
FoamFile
{
    version     2.0;
    format      ascii;
    arch        "LSB;label=32;scalar=64";
    class       volScalarField;
    location    "250";
    object      p;
}
// * * * * * * * * * * * * * * * * * * * * * * * * * * * * * * * * * * * * * //

dimensions      [0 2 -2 0 0 0 0];

internalField   nonuniform List<scalar> 
12225
(
-1.78519
-3.94242
-5.03504
-5.34881
-5.52565
-5.70442
-5.85251
-5.96416
-6.0558
-6.13875
-6.2161
-6.2889
-6.35885
-6.42795
-6.49868
-6.57049
-6.658
-6.71127
-4.91542
-5.70309
-5.90803
-5.82008
-5.79507
-5.85937
-5.94248
-6.01679
-6.08628
-6.15553
-6.22413
-6.29117
-6.35718
-6.42337
-6.49143
-6.56263
-6.64177
-6.74471
-5.29544
-5.22939
-5.34888
-5.43598
-5.54437
-5.68689
-5.82171
-5.93217
-6.02618
-6.11183
-6.19157
-6.2663
-6.33754
-6.40706
-6.47689
-6.54825
-6.62592
-6.70877
-5.16813
-5.08069
-5.33995
-5.53211
-5.65464
-5.77591
-5.88952
-5.98391
-6.06506
-6.14026
-6.2118
-6.28012
-6.34621
-6.41134
-6.47685
-6.54346
-6.61233
-6.67818
-5.15972
-5.17426
-5.42129
-5.58634
-5.67931
-5.77779
-5.88005
-5.9705
-6.05056
-6.12563
-6.1975
-6.26631
-6.33271
-6.39766
-6.46209
-6.52618
-6.58953
-6.64841
-5.22077
-5.26582
-5.45236
-5.59239
-5.68259
-5.77873
-5.8793
-5.96972
-6.05002
-6.12485
-6.19612
-6.2641
-6.32936
-6.3927
-6.4547
-6.51524
-6.57352
-6.6267
-5.28338
-5.32563
-5.46968
-5.60006
-5.69417
-5.78796
-5.884
-5.97166
-6.05024
-6.12348
-6.19318
-6.25966
-6.32333
-6.38476
-6.44424
-6.50147
-6.55551
-6.60406
-5.33891
-5.3761
-5.49363
-5.61451
-5.70808
-5.79724
-5.88775
-5.97221
-6.04898
-6.12069
-6.18892
-6.25397
-6.31611
-6.37567
-6.43278
-6.48701
-6.53752
-6.58256
-5.39068
-5.42453
-5.52213
-5.631
-5.72112
-5.80576
-5.89125
-5.97252
-6.04737
-6.11744
-6.18406
-6.24754
-6.30799
-6.3656
-6.42035
-6.47185
-6.51936
-6.56164
-5.43979
-5.47039
-5.55181
-5.64844
-5.73404
-5.81454
-5.89533
-5.97315
-6.04574
-6.11392
-6.17873
-6.24043
-6.29906
-6.35466
-6.40714
-6.45615
-6.50114
-6.54124
-5.48601
-5.51313
-5.58158
-5.66696
-5.74734
-5.8237
-5.89994
-5.97412
-6.04414
-6.11022
-6.17306
-6.23285
-6.28955
-6.34312
-6.39345
-6.44022
-6.48308
-6.52139
-5.52556
-5.54959
-5.60855
-5.68466
-5.7598
-5.83225
-5.90447
-5.97526
-6.04276
-6.10676
-6.16767
-6.22561
-6.2805
-6.33223
-6.38069
-6.42562
-6.46678
-6.50373
-5.5619
-5.58329
-5.63444
-5.70232
-5.77216
-5.84069
-5.9091
-5.97654
-6.04144
-6.10329
-6.16223
-6.2183
-6.27137
-6.32133
-6.36803
-6.4113
-6.45098
-6.48676
-5.59968
-5.61846
-5.66234
-5.72209
-5.78603
-5.8501
-5.91435
-5.97808
-6.03995
-6.09928
-6.15592
-6.20984
-6.26087
-6.30888
-6.35373
-6.39529
-6.4335
-6.46815
-5.6374
-5.65363
-5.69103
-5.74312
-5.80085
-5.86005
-5.91989
-5.97963
-6.03813
-6.09458
-6.14866
-6.20019
-6.249
-6.29494
-6.33789
-6.37776
-6.41454
-6.44813
-5.67274
-5.68664
-5.71853
-5.7638
-5.81546
-5.86963
-5.925
-5.98067
-6.03561
-6.08897
-6.1403
-6.18932
-6.23583
-6.27968
-6.32075
-6.359
-6.39445
-6.42704
-5.70232
-5.7143
-5.74178
-5.78142
-5.8277
-5.87718
-5.92834
-5.98016
-6.03164
-6.08196
-6.13056
-6.17713
-6.22142
-6.26329
-6.30263
-6.33941
-6.37366
-6.40538
-5.72116
-5.73176
-5.75618
-5.79183
-5.8341
-5.87992
-5.9277
-5.97639
-6.02501
-6.07275
-6.11903
-6.1635
-6.20592
-6.24612
-6.28402
-6.3196
-6.35287
-6.38388
-5.72153
-5.73149
-5.75459
-5.78855
-5.8291
-5.87322
-5.91933
-5.96638
-6.01346
-6.05975
-6.10469
-6.1479
-6.18917
-6.22836
-6.26541
-6.30029
-6.33303
-6.36371
-5.69733
-5.70782
-5.73212
-5.76788
-5.81029
-5.85587
-5.90301
-5.95088
-5.99862
-6.0454
-6.09064
-6.13403
-6.17539
-6.2146
-6.25163
-6.28649
-6.3192
-6.34988
-5.66307
-5.67447
-5.70126
-5.74089
-5.78718
-5.83575
-5.88533
-5.93538
-5.98498
-6.03317
-6.07949
-6.12373
-6.16579
-6.20556
-6.24304
-6.27828
-6.31135
-6.34238
-5.62078
-5.63289
-5.66346
-5.70975
-5.76171
-5.81387
-5.86648
-5.9197
-5.97209
-6.02243
-6.07037
-6.11588
-6.15891
-6.19942
-6.23745
-6.27309
-6.30646
-6.33768
-5.57383
-5.58525
-5.62034
-5.67669
-5.73633
-5.79254
-5.84846
-5.90503
-5.96027
-6.01287
-6.0627
-6.10984
-6.15421
-6.19579
-6.23467
-6.27103
-6.30502
-6.33688
-5.52478
-5.53386
-5.57529
-5.64303
-5.70947
-5.77065
-5.83221
-5.89341
-5.95143
-6.00576
-6.05696
-6.1052
-6.15037
-6.19248
-6.23173
-6.26834
-6.30248
-6.33429
-5.47362
-5.47494
-5.53794
-5.61983
-5.68364
-5.74454
-5.81233
-5.88024
-5.94289
-6.00061
-6.05467
-6.10521
-6.15206
-6.19535
-6.23541
-6.27259
-6.30719
-6.33971
-5.42736
-5.37891
-5.49485
-5.61657
-5.67939
-5.73229
-5.79721
-5.86421
-5.92621
-5.98399
-6.03878
-6.09037
-6.13832
-6.18269
-6.22381
-6.26199
-6.29745
-6.33035
-5.44445
-5.24646
-5.37982
-5.55812
-5.66364
-5.74451
-5.82425
-5.89684
-5.96017
-6.01763
-6.07114
-6.12072
-6.16622
-6.20802
-6.24654
-6.28225
-6.31563
-6.34772
-5.58533
-5.33789
-5.31453
-5.36989
-5.45299
-5.56168
-5.67315
-5.77105
-5.85602
-5.93259
-6.00241
-6.06537
-6.12171
-6.17226
-6.21785
-6.25911
-6.29686
-6.3324
-5.31332
-5.94405
-6.06283
-5.92298
-5.83541
-5.84284
-5.88513
-5.93014
-5.97583
-6.02413
-6.07323
-6.12068
-6.16517
-6.20661
-6.24506
-6.28039
-6.31296
-6.34414
-2.25887
-4.02599
-5.03934
-5.32092
-5.44748
-5.59027
-5.72027
-5.82104
-5.90337
-5.97664
-6.04294
-6.10213
-6.1548
-6.20185
-6.24399
-6.28143
-6.31429
-6.34103
-7.12678
-7.12653
-7.12659
-7.12718
-7.12823
-7.1296
-7.13116
-7.13282
-7.13455
-7.13636
-7.13826
-7.14026
-7.14239
-7.14469
-7.14717
-7.14988
-7.15284
-7.15611
-7.1597
-7.16366
-7.16803
-7.17284
-7.17814
-7.18399
-7.19045
-7.1976
-7.20548
-7.21419
-7.22378
-7.23432
-7.24587
-7.25848
-7.2722
-7.28704
-7.30302
-7.32015
-7.33842
-7.35779
-7.37824
-7.39971
-7.42215
-7.4455
-7.46973
-7.4948
-7.52067
-7.54722
-7.5743
-7.60183
-7.62974
-7.65798
-7.68649
-7.71522
-7.74409
-7.77304
-7.802
-7.8309
-7.85966
-7.88819
-7.91642
-7.94424
-7.97155
-7.99826
-8.02425
-8.04939
-8.07357
-8.09665
-8.1185
-8.13896
-8.15787
-8.1751
-8.19045
-8.20377
-8.21486
-8.22355
-8.22964
-8.23294
-8.23324
-8.23036
-8.22406
-8.21416
-8.20042
-8.18265
-8.16062
-8.13412
-8.10295
-8.06688
-8.02573
-7.97928
-7.92733
-7.86968
-7.80614
-7.73654
-7.66071
-7.57849
-7.48974
-7.39432
-7.29211
-7.18304
-7.06711
-6.9444
-6.81469
-6.67748
-6.53263
-6.38037
-6.22077
-6.05386
-5.87968
-5.69829
-5.50974
-5.31413
-5.11157
-4.90219
-4.68612
-4.46353
-4.23461
-3.99957
-3.75862
-3.512
-3.25996
-3.00277
-2.74071
-2.47408
-2.20317
-1.92832
-1.64982
-1.36801
-1.08321
-0.795775
-0.506015
-0.214267
0.0791499
0.373907
0.669702
0.966217
1.26314
1.56016
1.857
2.15337
2.44902
2.7437
3.03716
3.32918
3.61954
3.90806
4.19455
4.47884
4.76077
5.04019
5.31697
5.59098
5.86212
6.13027
6.39534
6.65724
6.91589
7.1712
7.4231
7.67152
7.9164
8.15765
8.39522
8.62904
8.85903
9.08515
9.30738
9.52571
9.73999
9.94987
10.1551
10.3557
10.5514
10.7423
10.9282
11.109
11.2847
11.4553
11.622
11.7854
11.9565
12.1312
-7.1271
-7.12693
-7.12704
-7.12767
-7.12869
-7.12985
-7.13105
-7.13226
-7.13347
-7.13469
-7.13598
-7.1374
-7.13898
-7.14076
-7.14275
-7.14498
-7.14746
-7.15021
-7.15324
-7.15661
-7.16035
-7.16453
-7.1692
-7.17443
-7.18029
-7.18685
-7.19419
-7.20238
-7.2115
-7.22163
-7.2328
-7.24509
-7.25852
-7.27313
-7.28891
-7.30586
-7.32395
-7.34316
-7.36343
-7.38473
-7.40698
-7.43014
-7.45413
-7.47891
-7.50441
-7.53054
-7.55722
-7.58436
-7.6119
-7.63978
-7.66795
-7.69633
-7.72487
-7.7535
-7.78216
-7.81077
-7.83926
-7.86754
-7.89554
-7.92316
-7.9503
-7.97686
-8.00272
-8.02778
-8.05191
-8.07497
-8.09684
-8.11735
-8.13637
-8.15373
-8.16926
-8.1828
-8.19416
-8.20317
-8.20962
-8.21334
-8.21411
-8.21173
-8.206
-8.19672
-8.18366
-8.16661
-8.14537
-8.11972
-8.08944
-8.05434
-8.0142
-7.96882
-7.918
-7.86155
-7.79929
-7.73103
-7.6566
-7.57586
-7.48864
-7.39482
-7.29425
-7.18681
-7.07234
-6.95063
-6.82156
-6.6853
-6.54196
-6.39138
-6.23352
-6.06837
-5.89598
-5.71637
-5.52961
-5.33579
-5.135
-4.92737
-4.71304
-4.49216
-4.26493
-4.03153
-3.7922
-3.54714
-3.29662
-3.0409
-2.78026
-2.51498
-2.24537
-1.97174
-1.6944
-1.41369
-1.12992
-0.843432
-0.554556
-0.263619
0.0290513
0.323135
0.618325
0.914314
1.21078
1.50741
1.80393
2.10004
2.3955
2.69004
2.98342
3.27541
3.56581
3.8544
4.14102
4.42547
4.70761
4.98729
5.26436
5.5387
5.8102
6.07875
6.34424
6.6066
6.86573
7.12155
7.374
7.62299
7.86847
8.11036
8.3486
8.5831
8.81382
9.04068
9.26359
9.48231
9.69657
9.90631
10.1115
10.3121
10.5079
10.6989
10.885
11.0662
11.2424
11.414
11.5822
11.7475
11.9221
12.092
-7.12548
-7.12567
-7.12619
-7.12705
-7.12804
-7.12897
-7.12979
-7.1305
-7.13117
-7.13184
-7.13258
-7.13342
-7.1344
-7.13556
-7.1369
-7.13848
-7.14031
-7.14244
-7.14493
-7.14782
-7.15116
-7.15503
-7.15949
-7.1646
-7.17044
-7.17708
-7.18457
-7.19298
-7.20237
-7.21277
-7.22423
-7.23678
-7.25043
-7.26518
-7.28102
-7.29794
-7.31589
-7.33487
-7.35482
-7.37571
-7.39748
-7.42009
-7.44349
-7.46761
-7.49241
-7.51781
-7.54374
-7.57016
-7.59698
-7.62416
-7.65164
-7.67937
-7.70727
-7.73528
-7.76335
-7.79139
-7.81934
-7.84712
-7.87463
-7.9018
-7.92852
-7.9547
-7.98022
-8.00497
-8.02883
-8.05167
-8.07334
-8.09372
-8.11264
-8.12995
-8.14549
-8.15909
-8.17056
-8.17974
-8.18642
-8.19042
-8.19153
-8.18957
-8.18431
-8.17557
-8.16312
-8.14675
-8.12626
-8.10142
-8.07204
-8.03789
-7.99878
-7.95451
-7.90486
-7.84966
-7.78871
-7.72184
-7.64887
-7.56964
-7.48399
-7.39179
-7.29291
-7.18721
-7.07457
-6.95481
-6.82779
-6.69357
-6.5522
-6.40364
-6.24784
-6.08479
-5.91451
-5.73703
-5.55242
-5.36075
-5.16212
-4.95664
-4.74445
-4.5257
-4.30056
-4.06924
-3.83195
-3.5889
-3.34035
-3.08654
-2.82777
-2.5643
-2.29645
-2.02451
-1.7488
-1.46963
-1.18736
-0.902281
-0.614748
-0.32508
-0.0336121
0.259345
0.55348
0.848491
1.14405
1.43985
1.73561
2.03104
2.32587
2.61986
2.91274
3.2043
3.49431
3.78258
4.06891
4.35313
4.63508
4.9146
5.19156
5.46582
5.73726
6.00578
6.27128
6.53365
6.79282
7.04869
7.3012
7.55026
7.7958
8.03774
8.27602
8.51058
8.74136
8.9683
9.19136
9.41039
9.62523
9.83571
10.0417
10.2432
10.4399
10.6319
10.819
11.0014
11.179
11.3523
11.5228
11.6903
11.8679
12.0266
-7.12133
-7.12209
-7.12334
-7.12467
-7.12584
-7.12678
-7.12752
-7.12811
-7.12859
-7.12905
-7.12954
-7.13012
-7.13084
-7.13174
-7.13285
-7.13422
-7.13588
-7.13788
-7.14028
-7.14313
-7.1465
-7.15046
-7.15506
-7.16037
-7.16646
-7.17338
-7.18119
-7.18992
-7.19961
-7.21031
-7.22201
-7.23475
-7.24852
-7.26331
-7.27911
-7.2959
-7.31367
-7.33237
-7.35199
-7.37247
-7.39378
-7.41588
-7.43872
-7.46225
-7.48643
-7.51119
-7.53649
-7.56227
-7.58848
-7.61506
-7.64197
-7.66913
-7.6965
-7.72401
-7.7516
-7.7792
-7.80673
-7.83412
-7.86128
-7.88813
-7.91456
-7.94049
-7.96579
-7.99036
-8.01407
-8.0368
-8.05841
-8.07875
-8.09769
-8.11505
-8.13069
-8.14442
-8.15608
-8.16548
-8.17243
-8.17675
-8.17824
-8.17669
-8.1719
-8.16367
-8.15179
-8.13603
-8.1162
-8.09209
-8.06347
-8.03014
-7.9919
-7.94854
-7.89986
-7.84567
-7.78577
-7.72
-7.64818
-7.57013
-7.4857
-7.39474
-7.29711
-7.19269
-7.08134
-6.96295
-6.83742
-6.70475
-6.56494
-6.41793
-6.26371
-6.10226
-5.93359
-5.75774
-5.57477
-5.38473
-5.18773
-4.98387
-4.7733
-4.55615
-4.33261
-4.10285
-3.8671
-3.62556
-3.37848
-3.12612
-2.86875
-2.60665
-2.34011
-2.06944
-1.79495
-1.51695
-1.23579
-0.951777
-0.665251
-0.376538
-0.08597
0.206146
0.499502
0.793782
1.08866
1.38383
1.67902
1.97394
2.26832
2.56189
2.85441
3.14565
3.43538
3.72341
4.00954
4.2936
4.57541
4.85483
5.13171
5.40592
5.67734
5.94585
6.21135
6.47375
6.73294
6.98886
7.2414
7.4905
7.73609
7.97808
8.21644
8.45109
8.68195
8.90897
9.13207
9.35119
9.56621
9.77699
9.98337
10.1852
10.3824
10.5749
10.7627
10.9457
11.1242
11.2985
11.47
11.6375
11.814
11.9594
-7.11495
-7.1164
-7.11873
-7.12085
-7.12246
-7.12367
-7.12456
-7.12523
-7.12576
-7.12623
-7.12671
-7.12728
-7.128
-7.12891
-7.13007
-7.13153
-7.13332
-7.13551
-7.13815
-7.14129
-7.145
-7.14933
-7.15435
-7.16011
-7.16665
-7.17402
-7.18227
-7.19142
-7.2015
-7.21253
-7.22451
-7.23747
-7.25139
-7.26626
-7.28207
-7.2988
-7.31643
-7.33494
-7.3543
-7.37447
-7.39542
-7.41711
-7.43951
-7.46257
-7.48626
-7.51052
-7.53532
-7.5606
-7.58633
-7.61244
-7.63889
-7.66562
-7.69257
-7.71969
-7.74691
-7.77417
-7.80139
-7.82849
-7.85539
-7.88201
-7.90824
-7.93399
-7.95916
-7.98361
-8.00725
-8.02993
-8.05152
-8.07188
-8.09086
-8.10831
-8.12406
-8.13794
-8.14977
-8.15939
-8.16659
-8.17119
-8.17299
-8.17179
-8.16738
-8.15957
-8.14813
-8.13286
-8.11355
-8.08999
-8.06195
-8.02925
-7.99165
-7.94898
-7.90101
-7.84755
-7.78843
-7.72346
-7.65245
-7.57525
-7.49169
-7.40162
-7.30491
-7.20142
-7.09103
-6.97365
-6.84917
-6.71759
-6.57884
-6.43292
-6.27977
-6.11941
-5.95183
-5.77707
-5.59519
-5.40624
-5.21032
-5.00755
-4.79804
-4.58195
-4.35944
-4.13071
-3.89596
-3.65541
-3.4093
-3.15788
-2.90141
-2.6402
-2.37451
-2.10467
-1.83097
-1.55374
-1.2733
-0.989992
-0.704126
-0.41605
-0.126076
0.165483
0.458322
0.752099
1.04651
1.34125
1.63606
1.93062
2.22467
2.51795
2.81021
3.10121
3.39073
3.67859
3.96457
4.2485
4.53022
4.80956
5.08639
5.36057
5.63198
5.9005
6.16603
6.42846
6.68771
6.9437
7.19632
7.44552
7.69123
7.93337
8.17185
8.40661
8.63758
8.86466
9.08778
9.30686
9.52183
9.7326
9.93902
10.141
10.3383
10.531
10.719
10.9023
11.0811
11.2556
11.427
11.5932
11.7665
11.8997
-7.10728
-7.10949
-7.11304
-7.11612
-7.11835
-7.11999
-7.12122
-7.12216
-7.1229
-7.12356
-7.12423
-7.12498
-7.1259
-7.12703
-7.12844
-7.13019
-7.13232
-7.13488
-7.13794
-7.14154
-7.14573
-7.15058
-7.15613
-7.16242
-7.16949
-7.17739
-7.18612
-7.19572
-7.20621
-7.2176
-7.22988
-7.24307
-7.25715
-7.27211
-7.28795
-7.30465
-7.32218
-7.34054
-7.35969
-7.37961
-7.40027
-7.42164
-7.44369
-7.46639
-7.48969
-7.51357
-7.53799
-7.56289
-7.58823
-7.61398
-7.64008
-7.66647
-7.69311
-7.71994
-7.74689
-7.7739
-7.8009
-7.82781
-7.85454
-7.88101
-7.90713
-7.9328
-7.9579
-7.98232
-8.00594
-8.02864
-8.05028
-8.07071
-8.08979
-8.10736
-8.12325
-8.1373
-8.14934
-8.15917
-8.16661
-8.17148
-8.17357
-8.17268
-8.1686
-8.16114
-8.15008
-8.13521
-8.11632
-8.09319
-8.06561
-8.03338
-7.99628
-7.95411
-7.90667
-7.85376
-7.7952
-7.7308
-7.66038
-7.58378
-7.50083
-7.41139
-7.31532
-7.21249
-7.10278
-6.98609
-6.86234
-6.73148
-6.59346
-6.44825
-6.29582
-6.13617
-5.96931
-5.79526
-5.61408
-5.42583
-5.23061
-5.02851
-4.81968
-4.60426
-4.38241
-4.15433
-3.92021
-3.68028
-3.43477
-3.18394
-2.92806
-2.6674
-2.40226
-2.13295
-1.85976
-1.58303
-1.30308
-1.02023
-0.73482
-0.447181
-0.157624
0.13354
0.425988
0.719378
1.01342
1.30783
1.60231
1.89657
2.19033
2.48333
2.77532
3.06607
3.35537
3.643
3.92879
4.21254
4.49409
4.77329
5.04999
5.32406
5.59537
5.86381
6.12927
6.39165
6.65087
6.90683
7.15946
7.40868
7.65441
7.89658
8.1351
8.36991
8.60093
8.82806
9.05121
9.27029
9.48524
9.69598
9.90241
10.1044
10.3018
10.4947
10.6828
10.8662
11.0451
11.2194
11.3902
11.5545
11.7246
11.8469
-7.09957
-7.10245
-7.10721
-7.11127
-7.11418
-7.11636
-7.11803
-7.11935
-7.12045
-7.12144
-7.12243
-7.12351
-7.12477
-7.12627
-7.12808
-7.13025
-7.13283
-7.13588
-7.13945
-7.14358
-7.14833
-7.15373
-7.15983
-7.16666
-7.17425
-7.18263
-7.19182
-7.20184
-7.2127
-7.2244
-7.23695
-7.25034
-7.26457
-7.27962
-7.2955
-7.31219
-7.32966
-7.34792
-7.36692
-7.38667
-7.40712
-7.42827
-7.45007
-7.4725
-7.49554
-7.51914
-7.54327
-7.5679
-7.59298
-7.61846
-7.64432
-7.67048
-7.69691
-7.72355
-7.75033
-7.77719
-7.80407
-7.83087
-7.85753
-7.88395
-7.91004
-7.9357
-7.96081
-7.98528
-8.00897
-8.03175
-8.05349
-8.07405
-8.09327
-8.111
-8.12707
-8.14132
-8.15356
-8.16362
-8.1713
-8.17642
-8.17877
-8.17816
-8.17437
-8.16721
-8.15646
-8.1419
-8.12334
-8.10054
-8.07331
-8.04142
-8.00468
-7.96288
-7.9158
-7.86327
-7.80509
-7.74108
-7.67106
-7.59485
-7.51231
-7.42328
-7.32762
-7.22521
-7.11593
-6.99968
-6.87638
-6.74597
-6.60839
-6.46362
-6.31162
-6.1524
-5.98596
-5.81232
-5.63155
-5.44371
-5.24888
-5.04718
-4.83874
-4.6237
-4.40222
-4.1745
-3.94074
-3.70116
-3.456
-3.20551
-2.94996
-2.68963
-2.42482
-2.15582
-1.88295
-1.60653
-1.32689
-1.04434
-0.759243
-0.471904
-0.182643
0.108226
0.400358
0.693439
0.987181
1.28131
1.5755
1.86947
2.16294
2.45565
2.74736
3.03784
3.32687
3.61425
3.89978
4.18328
4.4646
4.74357
5.02005
5.29391
5.56503
5.83328
6.09857
6.3608
6.61988
6.87572
7.12823
7.37735
7.623
7.86509
8.10357
8.33834
8.56933
8.79646
9.01961
9.23869
9.45364
9.66438
9.87082
10.0728
10.2704
10.4633
10.6515
10.835
11.0138
11.1877
11.3576
11.5199
11.687
11.7998
-7.0929
-7.09633
-7.10208
-7.10704
-7.11064
-7.11336
-7.11551
-7.11727
-7.11878
-7.12017
-7.12156
-7.12305
-7.12472
-7.12666
-7.12892
-7.13157
-7.13465
-7.13821
-7.14231
-7.14697
-7.15225
-7.15818
-7.1648
-7.17212
-7.18019
-7.18901
-7.1986
-7.20898
-7.22015
-7.23213
-7.2449
-7.25847
-7.27283
-7.28798
-7.30391
-7.3206
-7.33806
-7.35625
-7.37517
-7.39481
-7.41513
-7.43613
-7.45777
-7.48003
-7.50289
-7.52631
-7.55027
-7.57472
-7.59964
-7.62497
-7.65068
-7.67672
-7.70304
-7.72959
-7.7563
-7.78311
-7.80995
-7.83675
-7.86342
-7.88987
-7.91601
-7.94175
-7.96695
-7.99153
-8.01534
-8.03826
-8.06016
-8.08089
-8.10029
-8.11821
-8.13448
-8.14894
-8.1614
-8.17168
-8.17959
-8.18494
-8.18753
-8.18715
-8.18361
-8.17668
-8.16617
-8.15186
-8.13353
-8.11097
-8.08397
-8.05232
-8.01581
-7.97424
-7.9274
-7.8751
-7.81715
-7.75336
-7.68356
-7.60757
-7.52525
-7.43644
-7.341
-7.23881
-7.12975
-7.01373
-6.89065
-6.76046
-6.6231
-6.47854
-6.32674
-6.16771
-6.00146
-5.82801
-5.64742
-5.45975
-5.2651
-5.06357
-4.85528
-4.6404
-4.41908
-4.19151
-3.95791
-3.71848
-3.47346
-3.22312
-2.96773
-2.70755
-2.4429
-2.17406
-1.90136
-1.62512
-1.34566
-1.06331
-0.778408
-0.491273
-0.202224
0.0884076
0.380285
0.67311
0.966605
1.26048
1.5544
1.84809
2.14128
2.4337
2.72512
3.0153
3.30403
3.59111
3.87635
4.15956
4.44058
4.71927
4.99547
5.26906
5.53991
5.80791
6.07296
6.33496
6.59382
6.84946
7.10179
7.35074
7.59623
7.83819
8.07654
8.31122
8.54212
8.76918
8.99228
9.21133
9.42626
9.63699
9.84343
10.0455
10.243
10.436
10.6242
10.8077
10.9863
11.1597
11.3286
11.4887
11.6533
11.7579
-7.08806
-7.09188
-7.09829
-7.10396
-7.10816
-7.1114
-7.11402
-7.11621
-7.11813
-7.11994
-7.12174
-7.12366
-7.12576
-7.12814
-7.13086
-7.13397
-7.13752
-7.14157
-7.14615
-7.1513
-7.15705
-7.16344
-7.1705
-7.17825
-7.18671
-7.1959
-7.20583
-7.21651
-7.22795
-7.24015
-7.25311
-7.26684
-7.28133
-7.29657
-7.31255
-7.32928
-7.34674
-7.36492
-7.38381
-7.40339
-7.42365
-7.44456
-7.46612
-7.4883
-7.51106
-7.5344
-7.55827
-7.58265
-7.6075
-7.63277
-7.65844
-7.68445
-7.71075
-7.7373
-7.76403
-7.79088
-7.81778
-7.84465
-7.87141
-7.89797
-7.92424
-7.9501
-7.97546
-8.0002
-8.02419
-8.04729
-8.06938
-8.0903
-8.10991
-8.12804
-8.14452
-8.15918
-8.17185
-8.18233
-8.19045
-8.196
-8.19878
-8.19859
-8.19523
-8.18848
-8.17813
-8.16397
-8.14579
-8.12338
-8.09651
-8.06499
-8.02859
-7.98713
-7.94039
-7.88818
-7.83031
-7.7666
-7.69687
-7.62095
-7.53869
-7.44993
-7.35455
-7.25241
-7.1434
-7.02742
-6.90439
-6.77423
-6.63691
-6.49237
-6.34059
-6.18158
-6.01533
-5.84189
-5.6613
-5.47363
-5.27897
-5.07743
-4.86914
-4.65425
-4.43293
-4.20536
-3.97175
-3.73233
-3.48732
-3.237
-2.98163
-2.72149
-2.45688
-2.18811
-1.91548
-1.63932
-1.35996
-1.07774
-0.792968
-0.505984
-0.217107
0.0733178
0.364977
0.657575
0.950843
1.24447
1.53812
1.83153
2.12441
2.41653
2.70763
2.99749
3.28588
3.57263
3.85752
4.1404
4.42108
4.69944
4.97531
5.24857
5.51911
5.78681
6.05156
6.31328
6.57188
6.82726
7.07936
7.32809
7.57339
7.81517
8.05337
8.2879
8.51868
8.74563
8.96865
9.18764
9.40253
9.61323
9.81967
10.0217
10.2193
10.4122
10.6004
10.7838
10.9621
11.1349
11.3026
11.4607
11.623
11.7207
-7.08549
-7.08949
-7.09621
-7.10234
-7.10701
-7.11068
-7.1137
-7.11629
-7.1186
-7.12079
-7.12298
-7.12529
-7.12779
-7.13057
-7.13369
-7.13721
-7.14118
-7.14564
-7.15062
-7.15617
-7.16232
-7.16909
-7.17651
-7.18461
-7.19339
-7.20287
-7.21307
-7.22399
-7.23564
-7.24803
-7.26115
-7.27501
-7.2896
-7.30493
-7.32098
-7.33775
-7.35524
-7.37344
-7.39233
-7.41191
-7.43215
-7.45305
-7.4746
-7.49676
-7.51952
-7.54285
-7.56673
-7.59111
-7.61597
-7.64128
-7.66698
-7.69305
-7.71942
-7.74606
-7.77289
-7.79985
-7.82687
-7.85388
-7.8808
-7.90752
-7.93397
-7.96002
-7.98557
-8.01051
-8.0347
-8.05801
-8.08031
-8.10144
-8.12124
-8.13957
-8.15624
-8.17109
-8.18394
-8.19459
-8.20286
-8.20856
-8.21147
-8.21141
-8.20815
-8.20149
-8.19122
-8.17713
-8.15901
-8.13663
-8.10978
-8.07827
-8.04188
-8.00039
-7.95363
-7.90138
-7.84346
-7.7797
-7.7099
-7.63391
-7.55157
-7.46273
-7.36726
-7.26503
-7.15592
-7.03984
-6.91671
-6.78645
-6.64901
-6.50435
-6.35246
-6.19332
-6.02694
-5.85337
-5.67265
-5.48485
-5.29006
-5.08839
-4.87997
-4.66496
-4.44352
-4.21584
-3.98213
-3.74261
-3.49753
-3.24714
-2.99171
-2.73154
-2.46691
-2.19813
-1.92552
-1.64941
-1.37011
-1.08797
-0.803309
-0.51646
-0.227755
0.0624747
0.353918
0.646291
0.93932
1.23268
1.52604
1.81913
2.11168
2.40345
2.69419
2.98369
3.27171
3.55807
3.84258
4.12506
4.40536
4.68332
4.95881
5.23169
5.50186
5.7692
6.03361
6.295
6.55329
6.80838
7.06021
7.30869
7.55376
7.79533
8.03334
8.2677
8.49834
8.72516
8.94808
9.167
9.38183
9.5925
9.79892
10.001
10.1985
10.3914
10.5796
10.7627
10.9406
11.1128
11.2794
11.4355
11.5958
11.6876
-7.08522
-7.08921
-7.09595
-7.10229
-7.10726
-7.11124
-7.11458
-7.11748
-7.12011
-7.12263
-7.12515
-7.12778
-7.13062
-7.13373
-7.13718
-7.14103
-7.14533
-7.15011
-7.15542
-7.16128
-7.16773
-7.17479
-7.18249
-7.19084
-7.19985
-7.20955
-7.21995
-7.23104
-7.24285
-7.25538
-7.26862
-7.28258
-7.29727
-7.31267
-7.32879
-7.34562
-7.36316
-7.3814
-7.40034
-7.41995
-7.44024
-7.46118
-7.48277
-7.50499
-7.52781
-7.55121
-7.57516
-7.59962
-7.62458
-7.64999
-7.67581
-7.702
-7.72851
-7.75529
-7.78228
-7.80942
-7.83662
-7.86382
-7.89093
-7.91786
-7.94451
-7.97077
-7.99654
-8.02168
-8.04608
-8.06959
-8.09207
-8.11339
-8.13337
-8.15186
-8.16868
-8.18366
-8.19663
-8.20739
-8.21574
-8.22151
-8.22447
-8.22444
-8.22119
-8.21453
-8.20424
-8.19011
-8.17193
-8.14947
-8.12254
-8.09092
-8.05441
-8.01279
-7.96588
-7.91347
-7.85539
-7.79145
-7.72147
-7.64529
-7.56275
-7.47371
-7.37803
-7.27558
-7.16627
-7.04997
-6.92662
-6.79614
-6.65848
-6.5136
-6.36148
-6.20212
-6.03552
-5.86172
-5.68078
-5.49276
-5.29776
-5.09588
-4.88726
-4.67205
-4.45043
-4.22258
-3.98871
-3.74905
-3.50384
-3.25334
-2.99783
-2.73758
-2.47291
-2.20411
-1.93151
-1.65543
-1.3762
-1.09414
-0.809602
-0.522907
-0.234394
0.0556236
0.346825
0.638945
0.931697
1.22474
1.51776
1.81049
2.10267
2.39404
2.68437
2.97343
3.26102
3.54693
3.83098
4.11301
4.39285
4.67037
4.94541
5.21786
5.48761
5.75454
6.01856
6.27958
6.5375
6.79227
7.04378
7.29198
7.53679
7.77813
8.01593
8.25011
8.48059
8.70728
8.93008
9.14892
9.3637
9.57434
9.78072
9.98276
10.1803
10.3732
10.5612
10.7441
10.9216
11.093
11.2585
11.4128
11.5712
11.6582
-7.0871
-7.09094
-7.09746
-7.10378
-7.10887
-7.11302
-7.11655
-7.11967
-7.12253
-7.12528
-7.12805
-7.13093
-7.13401
-7.13737
-7.14107
-7.14516
-7.1497
-7.15471
-7.16024
-7.16631
-7.17296
-7.18021
-7.18809
-7.1966
-7.20577
-7.21561
-7.22613
-7.23735
-7.24926
-7.26189
-7.27522
-7.28927
-7.30403
-7.31951
-7.3357
-7.35261
-7.37022
-7.38853
-7.40754
-7.42724
-7.44762
-7.46866
-7.49034
-7.51266
-7.53558
-7.55909
-7.58316
-7.60777
-7.63288
-7.65845
-7.68444
-7.71081
-7.73751
-7.76448
-7.79167
-7.819
-7.84641
-7.87382
-7.90114
-7.92827
-7.95512
-7.98158
-8.00754
-8.03286
-8.05742
-8.08109
-8.10372
-8.12516
-8.14524
-8.16382
-8.18071
-8.19574
-8.20874
-8.2195
-8.22784
-8.23357
-8.23648
-8.23637
-8.23302
-8.22624
-8.21581
-8.20153
-8.18316
-8.16052
-8.13338
-8.10154
-8.06479
-8.02292
-7.97575
-7.92308
-7.86472
-7.8005
-7.73023
-7.65376
-7.57093
-7.48159
-7.38562
-7.28288
-7.17326
-7.05667
-6.93302
-6.80225
-6.66429
-6.51912
-6.36671
-6.20706
-6.04018
-5.86611
-5.6849
-5.49662
-5.30136
-5.09924
-4.89039
-4.67496
-4.45313
-4.22509
-3.99105
-3.75124
-3.50591
-3.2553
-2.9997
-2.7394
-2.4747
-2.2059
-1.93332
-1.6573
-1.37816
-1.09623
-0.811854
-0.525359
-0.237071
0.0526874
0.343601
0.635417
0.927829
1.22049
1.5131
1.8054
2.09712
2.38802
2.67786
2.96642
3.25349
3.53888
3.8224
4.10391
4.38322
4.66022
4.93475
5.20671
5.47597
5.74244
6.00602
6.26661
6.52414
6.77853
7.0297
7.27759
7.52211
7.76319
8.00076
8.23474
8.46505
8.6916
8.91429
9.13304
9.34777
9.55836
9.76473
9.96674
10.1642
10.3571
10.5449
10.7276
10.9047
11.0753
11.2397
11.3923
11.5491
11.6321
-7.09083
-7.09442
-7.10055
-7.10665
-7.11169
-7.11586
-7.11946
-7.12268
-7.12566
-7.12854
-7.13145
-7.13448
-7.13771
-7.14122
-7.14506
-7.1493
-7.15396
-7.1591
-7.16475
-7.17094
-7.1777
-7.18505
-7.19302
-7.20163
-7.21088
-7.22081
-7.23141
-7.2427
-7.25468
-7.26737
-7.28077
-7.29489
-7.30972
-7.32527
-7.34153
-7.35852
-7.37622
-7.39463
-7.41374
-7.43354
-7.45402
-7.47517
-7.49697
-7.51941
-7.54247
-7.56613
-7.59037
-7.61515
-7.64045
-7.66622
-7.69241
-7.71898
-7.74588
-7.77305
-7.80043
-7.82795
-7.85554
-7.88313
-7.91062
-7.93792
-7.96492
-7.99152
-8.01759
-8.04302
-8.06766
-8.09139
-8.11406
-8.13551
-8.1556
-8.17414
-8.19098
-8.20594
-8.21883
-8.22948
-8.23767
-8.24323
-8.24595
-8.24563
-8.24206
-8.23503
-8.22434
-8.20977
-8.19111
-8.16815
-8.14069
-8.10852
-8.07142
-8.02921
-7.98169
-7.92865
-7.86993
-7.80534
-7.73471
-7.65787
-7.57468
-7.48499
-7.38866
-7.28556
-7.1756
-7.05867
-6.93468
-6.80357
-6.6653
-6.51981
-6.36709
-6.20714
-6.03997
-5.86562
-5.68414
-5.49559
-5.30009
-5.09774
-4.88867
-4.67304
-4.45103
-4.22283
-3.98865
-3.74872
-3.50328
-3.2526
-2.99696
-2.73664
-2.47195
-2.2032
-1.93071
-1.65481
-1.37582
-1.09409
-0.809951
-0.523728
-0.235738
0.0536716
0.344217
0.635646
0.927621
1.2198
1.51191
1.80368
2.09486
2.3852
2.67446
2.96242
3.24889
3.53367
3.81659
4.09749
4.37621
4.65261
4.92657
5.19797
5.46669
5.73263
5.99571
6.25584
6.51293
6.76691
7.01771
7.26524
7.50945
7.75026
7.98758
8.22135
8.45148
8.67788
8.90047
9.11914
9.33381
9.54437
9.75072
9.95271
10.1502
10.3429
10.5307
10.713
10.8897
11.0596
11.2229
11.3739
11.5291
11.609
-7.09609
-7.09936
-7.10498
-7.11072
-7.11555
-7.1196
-7.12313
-7.12631
-7.12928
-7.13217
-7.1351
-7.13816
-7.14143
-7.14497
-7.14886
-7.15313
-7.15783
-7.16301
-7.1687
-7.17493
-7.18172
-7.18911
-7.19711
-7.20574
-7.21503
-7.22498
-7.2356
-7.24692
-7.25894
-7.27166
-7.28511
-7.29927
-7.31416
-7.32977
-7.3461
-7.36316
-7.38094
-7.39943
-7.41863
-7.43854
-7.45912
-7.48039
-7.50232
-7.52491
-7.54813
-7.57196
-7.59638
-7.62134
-7.64682
-7.67276
-7.69913
-7.72586
-7.75291
-7.78022
-7.80772
-7.83537
-7.86307
-7.89075
-7.91831
-7.94567
-7.9727
-7.99931
-8.02537
-8.05076
-8.07534
-8.09899
-8.12154
-8.14286
-8.16277
-8.18113
-8.19776
-8.21248
-8.22512
-8.23548
-8.24338
-8.24862
-8.25101
-8.25034
-8.2464
-8.239
-8.22791
-8.21295
-8.19388
-8.17052
-8.14264
-8.11005
-8.07254
-8.0299
-7.98196
-7.92851
-7.86937
-7.80437
-7.73333
-7.65611
-7.57253
-7.48246
-7.38576
-7.2823
-7.17198
-7.05471
-6.93039
-6.79897
-6.66038
-6.51459
-6.36158
-6.20136
-6.03392
-5.85932
-5.6776
-5.48884
-5.29313
-5.09059
-4.88135
-4.66558
-4.44344
-4.21514
-3.98088
-3.74089
-3.49543
-3.24476
-2.98916
-2.72891
-2.46433
-2.19572
-1.9234
-1.64772
-1.36899
-1.08757
-0.803775
-0.517916
-0.230346
0.0586015
0.348681
0.639613
0.931027
1.22261
1.51411
1.80526
2.09579
2.38545
2.67403
2.9613
3.24707
3.53115
3.81337
4.09358
4.37162
4.64735
4.92066
5.19143
5.45955
5.72491
5.98745
6.24705
6.50366
6.75719
7.00758
7.25475
7.49862
7.73913
7.9762
8.20975
8.4397
8.66596
8.88843
9.10702
9.32164
9.53218
9.73851
9.94048
10.1379
10.3306
10.5182
10.7003
10.8764
11.0456
11.2079
11.3575
11.5111
11.5887
-7.10255
-7.10546
-7.11051
-7.11576
-7.12024
-7.12402
-7.12733
-7.13032
-7.13314
-7.1359
-7.13871
-7.14168
-7.14486
-7.14834
-7.15217
-7.15639
-7.16106
-7.1662
-7.17185
-7.17805
-7.18481
-7.19217
-7.20015
-7.20876
-7.21802
-7.22795
-7.23856
-7.24986
-7.26187
-7.27459
-7.28804
-7.30221
-7.31711
-7.33275
-7.34912
-7.36622
-7.38405
-7.40261
-7.42188
-7.44186
-7.46255
-7.48394
-7.506
-7.52872
-7.55206
-7.57602
-7.60054
-7.62561
-7.65117
-7.67719
-7.70361
-7.73039
-7.75746
-7.78477
-7.81226
-7.83987
-7.86752
-7.89512
-7.92259
-7.94982
-7.9767
-8.00313
-8.02899
-8.05414
-8.07847
-8.10183
-8.12408
-8.14506
-8.16463
-8.18262
-8.19886
-8.21318
-8.22539
-8.23533
-8.24278
-8.24757
-8.2495
-8.24836
-8.24395
-8.23606
-8.2245
-8.20905
-8.18951
-8.16567
-8.13731
-8.10425
-8.06627
-8.02318
-7.97479
-7.9209
-7.86133
-7.79592
-7.72449
-7.64688
-7.56293
-7.47249
-7.37544
-7.27166
-7.16102
-7.04345
-6.91884
-6.78715
-6.6483
-6.50228
-6.34905
-6.18862
-6.021
-5.84622
-5.66435
-5.47545
-5.27963
-5.077
-4.86769
-4.65187
-4.42972
-4.20142
-3.96719
-3.72727
-3.48191
-3.23136
-2.97592
-2.71587
-2.45152
-2.18318
-1.91118
-1.63584
-1.35753
-1.07654
-0.793199
-0.507849
-0.220851
0.0675113
0.357005
0.647299
0.938012
1.22888
1.51965
1.81004
2.0998
2.38868
2.67646
2.96293
3.2479
3.53118
3.81261
4.09203
4.36931
4.6443
4.91689
5.18696
5.45441
5.71914
5.98107
6.24012
6.4962
6.74926
6.9992
7.24597
7.4895
7.7297
7.9665
8.19983
8.4296
8.65571
8.87808
9.09661
9.31118
9.5217
9.72803
9.93
10.1274
10.32
10.5074
10.6893
10.8649
11.0334
11.1947
11.343
11.4951
11.5711
-7.11021
-7.11277
-7.11722
-7.12189
-7.12587
-7.12921
-7.1321
-7.13472
-7.1372
-7.13966
-7.14221
-7.14495
-7.14794
-7.15125
-7.15492
-7.15902
-7.16357
-7.1686
-7.17415
-7.18024
-7.18691
-7.19417
-7.20204
-7.21055
-7.21971
-7.22955
-7.24007
-7.2513
-7.26323
-7.27588
-7.28925
-7.30336
-7.31821
-7.33379
-7.35012
-7.36719
-7.385
-7.40355
-7.42283
-7.44283
-7.46354
-7.48493
-7.50699
-7.52969
-7.55301
-7.57691
-7.60137
-7.62634
-7.65178
-7.67766
-7.70392
-7.73052
-7.75738
-7.78447
-7.81173
-7.83908
-7.86645
-7.89375
-7.92088
-7.94774
-7.97423
-8.00024
-8.02565
-8.05033
-8.07417
-8.09703
-8.11875
-8.13921
-8.15823
-8.17566
-8.19134
-8.2051
-8.21674
-8.22611
-8.23299
-8.23722
-8.23858
-8.23687
-8.23191
-8.22348
-8.21138
-8.1954
-8.17535
-8.151
-8.12216
-8.08861
-8.05017
-8.00664
-7.95782
-7.90354
-7.8436
-7.77782
-7.70604
-7.6281
-7.54384
-7.45312
-7.3558
-7.25176
-7.1409
-7.02311
-6.89832
-6.76646
-6.62747
-6.48131