/*--------------------------------*- C++ -*----------------------------------*\
| =========                 |                                                 |
| \\      /  F ield         | OpenFOAM: The Open Source CFD Toolbox           |
|  \\    /   O peration     | Version:  2212                                  |
|   \\  /    A nd           | Website:  www.openfoam.com                      |
|    \\/     M anipulation  |                                                 |
\*---------------------------------------------------------------------------*/
FoamFile
{
    version     2.0;
    format      ascii;
    arch        "LSB;label=32;scalar=64";
    class       surfaceScalarField;
    location    "250";
    object      phi;
}
// * * * * * * * * * * * * * * * * * * * * * * * * * * * * * * * * * * * * * //

dimensions      [0 3 -1 0 0 0 0];

oriented        oriented;

internalField   nonuniform List<scalar> 
24170
(
3.11512e-06
7.32903e-08
3.01296e-06
1.02153e-07
2.91749e-06
9.54724e-08
2.82631e-06
9.11803e-08
2.7403e-06
8.60064e-08
2.66278e-06
7.75222e-08
2.59488e-06
6.79019e-08
2.53596e-06
5.89176e-08
2.48491e-06
5.10471e-08
2.44064e-06
4.42679e-08
2.40219e-06
3.84498e-08
2.36875e-06
3.3446e-08
2.33964e-06
2.91094e-08
2.31432e-06
2.53187e-08
2.29248e-06
2.18325e-08
2.27365e-06
1.88326e-08
2.25762e-06
1.60325e-08
1.26793e-08
2.24494e-06
3.46865e-06
2.18863e-08
3.48678e-06
8.40284e-08
3.49345e-06
8.87978e-08
3.49232e-06
9.23101e-08
3.48432e-06
9.40014e-08
3.47071e-06
9.11347e-08
3.45278e-06
8.5833e-08
3.43174e-06
7.99583e-08
3.40869e-06
7.40951e-08
3.38455e-06
6.84012e-08
3.36004e-06
6.29671e-08
3.33564e-06
5.78416e-08
3.31174e-06
5.30082e-08
3.28861e-06
4.84548e-08
3.26643e-06
4.40121e-08
3.24543e-06
3.98281e-08
3.22637e-06
3.50903e-08
2.88374e-08
3.21021e-06
3.66801e-06
1.63929e-08
3.68031e-06
7.17284e-08
3.69e-06
7.91027e-08
3.70002e-06
8.22907e-08
3.70913e-06
8.48929e-08
3.71622e-06
8.4044e-08
3.72118e-06
8.087e-08
3.72423e-06
7.69154e-08
3.72559e-06
7.27365e-08
3.72551e-06
6.84752e-08
3.72426e-06
6.42208e-08
3.72206e-06
6.00424e-08
3.71911e-06
5.59545e-08
3.71562e-06
5.19452e-08
3.71172e-06
4.79093e-08
3.70776e-06
4.37846e-08
3.70378e-06
3.90771e-08
3.32151e-08
3.6994e-06
3.92495e-06
1.68284e-08
3.93556e-06
6.11187e-08
3.94312e-06
7.15448e-08
3.95014e-06
7.52679e-08
3.95682e-06
7.82116e-08
3.96261e-06
7.82527e-08
3.96757e-06
7.59096e-08
3.9719e-06
7.25894e-08
3.97568e-06
6.89498e-08
3.97899e-06
6.51724e-08
3.98186e-06
6.1345e-08
3.98437e-06
5.75342e-08
3.98657e-06
5.3758e-08
3.98851e-06
4.9997e-08
3.99026e-06
4.61615e-08
3.9919e-06
4.21454e-08
3.99328e-06
3.76969e-08
3.2514e-08
3.99398e-06
4.20772e-06
1.62321e-08
4.21609e-06
5.27536e-08
4.22226e-06
6.53747e-08
4.22774e-06
6.9784e-08
4.23318e-06
7.27693e-08
4.23821e-06
7.32258e-08
4.24274e-06
7.13842e-08
4.24686e-06
6.84678e-08
4.25065e-06
6.51608e-08
4.25415e-06
6.1671e-08
4.2574e-06
5.80886e-08
4.26046e-06
5.44803e-08
4.26335e-06
5.08687e-08
4.26611e-06
4.72359e-08
4.26876e-06
4.3511e-08
4.2713e-06
3.96053e-08
4.27361e-06
3.53797e-08
3.07023e-08
4.27543e-06
4.51042e-06
1.48965e-08
4.51713e-06
4.60497e-08
4.52283e-06
5.96677e-08
4.52796e-06
6.46521e-08
4.5331e-06
6.76333e-08
4.53796e-06
6.8369e-08
4.54238e-06
6.69574e-08
4.54643e-06
6.44174e-08
4.55018e-06
6.1411e-08
4.55369e-06
5.81681e-08
4.55698e-06
5.47893e-08
4.56012e-06
5.13448e-08
4.56312e-06
4.78653e-08
4.56602e-06
4.434e-08
4.56881e-06
4.07209e-08
4.57147e-06
3.69462e-08
4.5739e-06
3.29455e-08
2.8688e-08
4.57592e-06
4.83415e-06
1.34688e-08
4.83991e-06
4.02895e-08
4.84554e-06
5.40322e-08
4.85066e-06
5.95351e-08
4.85572e-06
6.25739e-08
4.86055e-06
6.35417e-08
4.86499e-06
6.25137e-08
4.86908e-06
6.03271e-08
4.87289e-06
5.76055e-08
4.87646e-06
5.45963e-08
4.87983e-06
5.14123e-08
4.88305e-06
4.81284e-08
4.88613e-06
4.47839e-08
4.88909e-06
4.13784e-08
4.89193e-06
3.78867e-08
4.8946e-06
3.42737e-08
4.89703e-06
3.05176e-08
2.66436e-08
4.89907e-06
5.18096e-06
1.20933e-08
5.18606e-06
3.51906e-08
5.19158e-06
4.85047e-08
5.19671e-06
5.4403e-08
5.20177e-06
5.7517e-08
5.20665e-06
5.86653e-08
5.21119e-06
5.79711e-08
5.2154e-06
5.61146e-08
5.21934e-06
5.3669e-08
5.22304e-06
5.08928e-08
5.22654e-06
4.79087e-08
5.22988e-06
4.47963e-08
5.23306e-06
4.16032e-08
5.23609e-06
3.83414e-08
5.23897e-06
3.50055e-08
5.24166e-06
3.15847e-08
5.24409e-06
2.80874e-08
2.45616e-08
5.24618e-06
5.55268e-06
1.07548e-08
5.55721e-06
3.06605e-08
5.56252e-06
4.31899e-08
5.56764e-06
4.92845e-08
5.57271e-06
5.24434e-08
5.57766e-06
5.37135e-08
5.58234e-06
5.32994e-08
5.5867e-06
5.17467e-08
5.5908e-06
4.95682e-08
5.59467e-06
4.70259e-08
5.59833e-06
4.42498e-08
5.6018e-06
4.13238e-08
5.6051e-06
3.83025e-08
5.60823e-06
3.52104e-08
5.61118e-06
3.20583e-08
5.61391e-06
2.88548e-08
5.61637e-06
2.56246e-08
2.24251e-08
5.61851e-06
5.95107e-06
9.45949e-09
5.95511e-06
2.66194e-08
5.96017e-06
3.81363e-08
5.96524e-06
4.42111e-08
5.97032e-06
4.73653e-08
5.97533e-06
4.87025e-08
5.98012e-06
4.85102e-08
5.98464e-06
4.72275e-08
5.9889e-06
4.5301e-08
5.99294e-06
4.29891e-08
5.99676e-06
4.04265e-08
6.00039e-06
3.77001e-08
6.00382e-06
3.48701e-08
6.00706e-06
3.19714e-08
6.01009e-06
2.90274e-08
6.01288e-06
2.60602e-08
6.0154e-06
2.31023e-08
2.02126e-08
6.01762e-06
6.37804e-06
8.22786e-09
6.38168e-06
2.29859e-08
6.38646e-06
3.3355e-08
6.39146e-06
3.9211e-08
6.39652e-06
4.23018e-08
6.40157e-06
4.3658e-08
6.40645e-06
4.36285e-08
6.4111e-06
4.25765e-08
6.41552e-06
4.08825e-08
6.41971e-06
3.87934e-08
6.42369e-06
3.64462e-08
6.42746e-06
3.39294e-08
6.43103e-06
3.13064e-08
6.43438e-06
2.86204e-08
6.4375e-06
2.59032e-08
6.44038e-06
2.31852e-08
6.44298e-06
2.05012e-08
1.79076e-08
6.44528e-06
5.74182e-06
7.23851e-09
5.74462e-06
2.01845e-08
5.74846e-06
2.95233e-08
5.75261e-06
3.50562e-08
5.75687e-06
3.80437e-08
5.76114e-06
3.93843e-08
5.76532e-06
3.9449e-08
5.76934e-06
3.85595e-08
5.77317e-06
3.70459e-08
5.77683e-06
3.51386e-08
5.7803e-06
3.29732e-08
5.78359e-06
3.06386e-08
5.7867e-06
2.82002e-08
5.78961e-06
2.57049e-08
5.79233e-06
2.31896e-08
5.79482e-06
2.06881e-08
5.79709e-06
1.82347e-08
1.58832e-08
5.79912e-06
6.99922e-06
6.17731e-09
7.00219e-06
1.72085e-08
7.00635e-06
2.53636e-08
7.01099e-06
3.04132e-08
7.01583e-06
3.32071e-08
7.02073e-06
3.44846e-08
7.02557e-06
3.4614e-08
7.03025e-06
3.38764e-08
7.03474e-06
3.25493e-08
7.03904e-06
3.0841e-08
7.04313e-06
2.88824e-08
7.04701e-06
2.67612e-08
7.05067e-06
2.45424e-08
7.0541e-06
2.22754e-08
7.05729e-06
1.99994e-08
7.06023e-06
1.77498e-08
7.0629e-06
1.55581e-08
1.34742e-08
7.06531e-06
8.53197e-06
5.05328e-09
8.53509e-06
1.40856e-08
8.53955e-06
2.09059e-08
8.54467e-06
2.52924e-08
8.5501e-06
2.77764e-08
8.55566e-06
2.89241e-08
8.5612e-06
2.90731e-08
8.56662e-06
2.84641e-08
8.57184e-06
2.73223e-08
8.57686e-06
2.58273e-08
8.58164e-06
2.41006e-08
8.58617e-06
2.22252e-08
8.59045e-06
2.02636e-08
8.59446e-06
1.82646e-08
8.59819e-06
1.62673e-08
8.60164e-06
1.43056e-08
8.60479e-06
1.24072e-08
1.0616e-08
8.60765e-06
1.04004e-05
3.87773e-09
1.04036e-05
1.08373e-08
1.04084e-05
1.61754e-08
1.0414e-05
1.9708e-08
1.042e-05
2.1741e-08
1.04262e-05
2.26715e-08
1.04325e-05
2.2779e-08
1.04387e-05
2.22616e-08
1.04448e-05
2.1294e-08
1.04506e-05
2.00213e-08
1.04561e-05
1.85491e-08
1.04614e-05
1.69517e-08
1.04664e-05
1.52854e-08
1.0471e-05
1.35948e-08
1.04754e-05
1.19156e-08
1.04794e-05
1.02779e-08
1.04831e-05
8.7041e-09
7.23165e-09
1.04865e-05
1.2678e-05
2.65824e-09
1.26814e-05
7.4616e-09
1.26864e-05
1.11741e-08
1.26924e-05
1.36605e-08
1.26991e-05
1.50814e-08
1.27061e-05
1.56855e-08
1.27132e-05
1.56754e-08
1.27202e-05
1.51997e-08
1.27272e-05
1.43842e-08
1.27338e-05
1.33358e-08
1.27403e-05
1.21365e-08
1.27464e-05
1.08466e-08
1.27521e-05
9.51186e-09
1.27576e-05
8.16866e-09
1.27626e-05
6.84598e-09
1.27673e-05
5.56776e-09
1.27717e-05
4.35024e-09
3.22387e-09
1.27757e-05
1.54545e-05
1.38642e-09
1.5458e-05
3.91542e-09
1.54633e-05
5.84701e-09
1.54699e-05
7.09416e-09
1.54772e-05
7.72896e-09
1.5485e-05
7.88024e-09
1.54931e-05
7.6646e-09
1.55011e-05
7.17216e-09
1.5509e-05
6.47898e-09
1.55167e-05
5.65042e-09
1.55241e-05
4.73853e-09
1.55311e-05
3.7828e-09
1.55378e-05
2.81365e-09
1.55441e-05
1.85526e-09
1.55501e-05
9.26819e-10
1.55556e-05
4.39046e-11
1.55607e-05
-7.84059e-10
-1.53427e-09
1.55655e-05
1.8839e-05
2.30758e-11
1.88428e-05
7.44719e-11
1.88487e-05
1.74378e-11
1.8856e-05
-1.87411e-10
1.88642e-05
-5.21886e-10
1.8873e-05
-9.57045e-10
1.88822e-05
-1.46858e-09
1.88914e-05
-2.0343e-09
1.89005e-05
-2.63191e-09
1.89094e-05
-3.2418e-09
1.8918e-05
-3.84849e-09
1.89262e-05
-4.43975e-09
1.8934e-05
-5.00555e-09
1.89414e-05
-5.53759e-09
1.89484e-05
-6.02932e-09
1.89549e-05
-6.47521e-09
1.8961e-05
-6.87339e-09
-7.20921e-09
1.89666e-05
2.29649e-05
-1.53295e-09
2.29693e-05
-4.35542e-09
2.29761e-05
-6.75007e-09
2.29846e-05
-8.68853e-09
2.29943e-05
-1.01877e-08
2.30046e-05
-1.13338e-08
2.30154e-05
-1.22164e-08
2.30262e-05
-1.28897e-08
2.3037e-05
-1.33906e-08
2.30475e-05
-1.37542e-08
2.30577e-05
-1.40113e-08
2.30674e-05
-1.41839e-08
2.30767e-05
-1.42871e-08
2.30855e-05
-1.43321e-08
2.30938e-05
-1.43275e-08
2.31016e-05
-1.42792e-08
2.31089e-05
-1.41935e-08
-1.40643e-08
2.31158e-05
1.68119e-05
-2.73649e-09
1.68153e-05
-7.76181e-09
1.68205e-05
-1.19699e-08
1.68271e-05
-1.52075e-08
1.68344e-05
-1.75182e-08
1.68422e-05
-1.91357e-08
1.68502e-05
-2.02535e-08
1.68583e-05
-2.09718e-08
1.68663e-05
-2.1368e-08
1.6874e-05
-2.15222e-08
1.68815e-05
-2.15e-08
1.68887e-05
-2.13478e-08
1.68955e-05
-2.10989e-08
1.6902e-05
-2.07788e-08
1.6908e-05
-2.04064e-08
1.69138e-05
-1.99954e-08
1.69191e-05
-1.95565e-08
-1.90892e-08
1.69241e-05
1.46357e-05
-3.8707e-09
1.4639e-05
-1.10267e-08
1.4644e-05
-1.70147e-08
1.46502e-05
-2.14112e-08
1.46571e-05
-2.43604e-08
1.46643e-05
-2.63354e-08
1.46716e-05
-2.76118e-08
1.4679e-05
-2.83086e-08
1.46861e-05
-2.85531e-08
1.46931e-05
-2.84761e-08
1.46998e-05
-2.81733e-08
1.47061e-05
-2.77083e-08
1.47122e-05
-2.7129e-08
1.47178e-05
-2.64727e-08
1.47232e-05
-2.57673e-08
1.47282e-05
-2.50321e-08
1.4733e-05
-2.42819e-08
-2.35198e-08
1.47374e-05
1.27412e-05
-4.89599e-09
1.27444e-05
-1.42727e-08
1.27495e-05
-2.21368e-08
1.27556e-05
-2.74649e-08
1.2762e-05
-3.0831e-08
1.27688e-05
-3.30812e-08
1.27756e-05
-3.44606e-08
1.27824e-05
-3.50694e-08
1.2789e-05
-3.51088e-08
1.27953e-05
-3.47702e-08
1.28013e-05
-3.41726e-08
1.28069e-05
-3.33928e-08
1.28123e-05
-3.24917e-08
1.28173e-05
-3.15167e-08
1.28221e-05
-3.05017e-08
1.28265e-05
-2.94692e-08
1.28307e-05
-2.84343e-08
-2.74009e-08
1.28345e-05
1.10917e-05
-5.67868e-09
1.1095e-05
-1.75428e-08
1.11004e-05
-2.75433e-08
1.11064e-05
-3.34572e-08
1.11125e-05
-3.69881e-08
1.11189e-05
-3.94271e-08
1.11253e-05
-4.08331e-08
1.11315e-05
-4.1291e-08
1.11375e-05
-4.10972e-08
1.11432e-05
-4.04882e-08
1.11486e-05
-3.95931e-08
1.11537e-05
-3.85012e-08
1.11585e-05
-3.72873e-08
1.1163e-05
-3.60089e-08
1.11672e-05
-3.47047e-08
1.11711e-05
-3.34006e-08
1.11748e-05
-3.21148e-08
-3.08555e-08
1.11783e-05
9.65564e-06
-6.105e-09
9.65905e-06
-2.09496e-08
9.66465e-06
-3.31455e-08
9.67045e-06
-3.92576e-08
9.67637e-06
-4.29108e-08
9.68244e-06
-4.5491e-08
9.68839e-06
-4.67871e-08
9.6941e-06
-4.69987e-08
9.69954e-06
-4.65402e-08
9.70471e-06
-4.56589e-08
9.70959e-06
-4.4475e-08
9.71418e-06
-4.30867e-08
9.71847e-06
-4.15807e-08
9.72248e-06
-4.00226e-08
9.72623e-06
-3.84544e-08
9.72974e-06
-3.69026e-08
9.733e-06
-3.53803e-08
-3.38813e-08
9.73603e-06
8.40494e-06
-5.69729e-09
8.40933e-06
-2.53308e-08
8.41475e-06
-3.85709e-08
8.41987e-06
-4.43753e-08
8.42545e-06
-4.84908e-08
8.43132e-06
-5.13635e-08
8.43705e-06
-5.25157e-08
8.44249e-06
-5.24372e-08
8.44763e-06
-5.16829e-08
8.45247e-06
-5.05018e-08
8.45701e-06
-4.90103e-08
8.46124e-06
-4.73176e-08
8.46518e-06
-4.55201e-08
8.46884e-06
-4.36889e-08
8.47226e-06
-4.18683e-08
8.47544e-06
-4.00874e-08
8.47843e-06
-3.83705e-08
-3.67274e-08
8.48128e-06
7.31365e-06
-2.06018e-09
7.32071e-06
-3.23949e-08
7.32652e-06
-4.43788e-08
7.33133e-06
-4.91903e-08
7.33672e-06
-5.38778e-08
7.34239e-06
-5.7033e-08
7.34793e-06
-5.80585e-08
7.35325e-06
-5.77564e-08
7.35832e-06
-5.67532e-08
7.3631e-06
-5.52814e-08
7.36757e-06
-5.34746e-08
7.37171e-06
-5.14633e-08
7.37555e-06
-4.93603e-08
7.3791e-06
-4.72413e-08
7.38239e-06
-4.51562e-08
7.38544e-06
-4.31346e-08
7.38825e-06
-4.11874e-08
-3.92635e-08
7.39079e-06
6.36047e-06
7.53662e-09
6.3703e-06
-4.22263e-08
6.37819e-06
-5.22681e-08
6.38526e-06
-5.62598e-08
6.39239e-06
-6.10058e-08
6.39901e-06
-6.3654e-08
6.405e-06
-6.40547e-08
6.41056e-06
-6.33121e-08
6.41577e-06
-6.19613e-08
6.42062e-06
-6.01373e-08
6.42511e-06
-5.79659e-08
6.42924e-06
-5.55884e-08
6.43301e-06
-5.31334e-08
6.43645e-06
-5.06776e-08
6.43957e-06
-4.82791e-08
6.44241e-06
-4.59789e-08
6.44503e-06
-4.38083e-08
-4.17948e-08
6.44757e-06
5.53917e-06
1.38306e-08
5.54752e-06
-5.05791e-08
5.55587e-06
-6.06149e-08
5.56613e-06
-6.65176e-08
5.57733e-06
-7.22109e-08
5.58783e-06
-7.4155e-08
5.59705e-06
-7.32774e-08
5.60502e-06
-7.12763e-08
5.61179e-06
-6.8737e-08
5.61746e-06
-6.57999e-08
5.62208e-06
-6.25884e-08
5.62575e-06
-5.92577e-08
5.62856e-06
-5.59429e-08
5.6306e-06
-5.27188e-08
5.63196e-06
-4.96368e-08
5.63274e-06
-4.6766e-08
5.63305e-06
-4.41167e-08
-4.17814e-08
5.63304e-06
4.87157e-06
-3.01344e-08
4.88648e-06
-6.54849e-08
4.89722e-06
-7.13578e-08
4.906e-06
-7.52956e-08
4.91305e-06
-7.92592e-08
4.91733e-06
-7.84385e-08
4.91816e-06
-7.41139e-08
4.91544e-06
-6.85476e-08
4.90945e-06
-6.2756e-08
4.90074e-06
-5.70806e-08
4.88984e-06
-5.16919e-08
4.87727e-06
-4.66892e-08
4.86348e-06
-4.21542e-08
4.84884e-06
-3.8079e-08
4.83365e-06
-3.44497e-08
4.81818e-06
-3.12899e-08
4.80268e-06
-2.86147e-08
-2.69195e-08
4.78781e-06
4.17254e-06
4.10706e-06
4.0357e-06
3.9604e-06
3.88114e-06
3.80271e-06
3.72859e-06
3.66004e-06
3.59729e-06
3.54021e-06
3.48852e-06
3.44183e-06
3.39967e-06
3.36159e-06
3.32714e-06
3.29585e-06
3.26724e-06
3.24032e-06
7.51957e-09
-7.52474e-09
2.09591e-08
-1.34475e-08
3.54837e-08
-1.45315e-08
4.86881e-08
-1.32108e-08
5.93199e-08
-1.06377e-08
6.6852e-08
-7.53799e-09
7.11965e-08
-4.35029e-09
7.2511e-08
-1.32036e-09
7.1128e-08
1.37702e-09
6.75154e-08
3.60634e-09
6.21657e-08
5.34323e-09
5.54894e-08
6.66952e-09
4.77714e-08
7.71129e-09
3.91652e-08
8.59904e-09
2.97187e-08
9.43941e-09
1.9405e-08
1.03063e-08
8.17225e-09
1.12255e-08
-4.07246e-09
1.22369e-08
-1.75323e-08
1.34524e-08
-3.2394e-08
1.48537e-08
-4.87822e-08
1.63811e-08
-6.6844e-08
1.80532e-08
-8.67185e-08
1.98672e-08
-1.08536e-07
2.18084e-08
-1.32396e-07
2.38526e-08
-1.58373e-07
2.59676e-08
-1.86489e-07
2.81091e-08
-2.1673e-07
3.02326e-08
-2.49034e-07
3.22974e-08
-2.83309e-07
3.42668e-08
-3.19423e-07
3.61095e-08
-3.57232e-07
3.78011e-08
-3.9656e-07
3.93243e-08
-4.37231e-07
4.06657e-08
-4.79049e-07
4.18153e-08
-5.21825e-07
4.27715e-08
-5.65368e-07
4.35406e-08
-6.09505e-07
4.41338e-08
-6.54073e-07
4.45655e-08
-6.98928e-07
4.48518e-08
-7.4394e-07
4.50102e-08
-7.89002e-07
4.50578e-08
-8.34015e-07
4.50113e-08
-8.78906e-07
4.48881e-08
-9.23615e-07
4.47085e-08
-9.68118e-07
4.45004e-08
-1.01242e-06
4.4299e-08
-1.05654e-06
4.41145e-08
-1.10047e-06
4.3936e-08
-1.14424e-06
4.37634e-08
-1.18784e-06
4.35937e-08
-1.23127e-06
4.34259e-08
-1.27453e-06
4.32584e-08
-1.31762e-06
4.30899e-08
-1.36054e-06
4.29186e-08
-1.40329e-06
4.27426e-08
-1.44585e-06
4.25597e-08
-1.48823e-06
4.23678e-08
-1.53039e-06
4.21642e-08
-1.57234e-06
4.19465e-08
-1.61406e-06
4.17121e-08
-1.65552e-06
4.14583e-08
-1.69671e-06
4.11826e-08
-1.73759e-06
4.08825e-08
-1.77815e-06
4.05554e-08
-1.81835e-06
4.01989e-08
-1.85816e-06
3.98108e-08
-1.89755e-06
3.93888e-08
-1.93649e-06
3.89311e-08
-1.97492e-06
3.84357e-08
-2.01283e-06
3.79011e-08
-2.05015e-06
3.73256e-08
-2.08686e-06
3.67078e-08
-2.12291e-06
3.60467e-08
-2.15825e-06
3.53411e-08
-2.19285e-06
3.45902e-08
-2.22664e-06
3.37933e-08
-2.2596e-06
3.29499e-08
-2.29166e-06
3.20597e-08
-2.32278e-06
3.11223e-08
-2.35292e-06
3.01376e-08
-2.38203e-06
2.91056e-08
-2.41006e-06
2.80266e-08
-2.43696e-06
2.69006e-08
-2.46269e-06
2.5728e-08
-2.4872e-06
2.45088e-08
-2.51044e-06
2.32434e-08
-2.53237e-06
2.19323e-08
-2.55294e-06
2.05759e-08
-2.57211e-06
1.91741e-08
-2.58983e-06
1.77259e-08
-2.60606e-06
1.62303e-08
-2.62075e-06
1.46849e-08
-2.63384e-06
1.30862e-08
-2.64526e-06
1.14284e-08
-2.65497e-06
9.70447e-09
-2.66288e-06
7.90444e-09
-2.66889e-06
6.01403e-09
-2.67291e-06
4.01616e-09
-2.67483e-06
1.91651e-09
-2.67465e-06
-1.87105e-10
-2.67256e-06
-2.09339e-09
-2.66875e-06
-3.81388e-09
-2.66326e-06
-5.49845e-09
-2.65609e-06
-7.17425e-09
-2.64724e-06
-8.85371e-09
-2.6367e-06
-1.05374e-08
-2.62448e-06
-1.22245e-08
-2.61057e-06
-1.39125e-08
-2.59497e-06
-1.55992e-08
-2.57769e-06
-1.72817e-08
-2.55873e-06
-1.89571e-08
-2.5381e-06
-2.06225e-08
-2.51583e-06
-2.22751e-08
-2.49191e-06
-2.39121e-08
-2.46637e-06
-2.55307e-08
-2.43924e-06
-2.7128e-08
-2.41054e-06
-2.87009e-08
-2.38029e-06
-3.02465e-08
-2.34852e-06
-3.17623e-08
-2.31527e-06
-3.32457e-08
-2.28057e-06
-3.46943e-08
-2.24446e-06
-3.61055e-08
-2.20698e-06
-3.74765e-08
-2.16817e-06
-3.88053e-08
-2.12808e-06
-4.00895e-08
-2.08675e-06
-4.13276e-08
-2.04423e-06
-4.25178e-08
-2.00057e-06
-4.36594e-08
-1.95582e-06
-4.47524e-08
-1.91003e-06
-4.57965e-08
-1.86324e-06
-4.6795e-08
-1.81549e-06
-4.77491e-08
-1.76684e-06
-4.86488e-08
-1.71736e-06
-4.94879e-08
-1.66708e-06
-5.02754e-08
-1.61606e-06
-5.10143e-08
-1.56435e-06
-5.17036e-08
-1.51199e-06
-5.23415e-08
-1.45904e-06
-5.29305e-08
-1.40554e-06
-5.34726e-08
-1.35153e-06
-5.39707e-08
-1.29708e-06
-5.44268e-08
-1.2422e-06
-5.48422e-08
-1.18694e-06
-5.52188e-08
-1.13134e-06
-5.55586e-08
-1.07544e-06
-5.58639e-08
-1.01926e-06
-5.6137e-08
-9.62832e-07
-5.63801e-08
-9.06189e-07
-5.65956e-08
-8.49355e-07
-5.6786e-08
-7.9235e-07
-5.69539e-08
-7.35197e-07
-5.71015e-08
-6.7791e-07
-5.72316e-08
-6.20508e-07
-5.73467e-08
-5.63002e-07
-5.74488e-08
-5.05404e-07
-5.754e-08
-4.47722e-07
-5.76223e-08
-3.89966e-07
-5.76973e-08
-3.32137e-07
-5.77677e-08
-2.74246e-07
-5.78319e-08
-2.16292e-07
-5.78928e-08
-1.58282e-07
-5.79509e-08
-1.00238e-07
-5.79836e-08
-4.22504e-08
-5.79298e-08
1.55593e-08
-5.77516e-08
7.32492e-08
-5.76365e-08
1.30934e-07
-5.7633e-08
1.88625e-07
-5.7644e-08
2.46369e-07
-5.76993e-08
3.04185e-07
-5.77761e-08
3.62061e-07
-5.78393e-08
4.19932e-07
-5.78389e-08
4.77653e-07
-5.76914e-08
5.3493e-07
-5.72547e-08
5.91181e-07
-5.62314e-08
6.45176e-07
-5.39818e-08
6.93935e-07
-4.87474e-08
7.30426e-07
-3.64834e-08
7.40193e-09
7.23035e-07
1.229e-08
-1.98199e-08
2.35782e-08
-2.47426e-08
3.08826e-08
-2.18404e-08
3.47646e-08
-1.70966e-08
3.59378e-08
-1.18141e-08
3.48396e-08
-6.44303e-09
3.17341e-08
-1.24776e-09
2.68078e-08
3.6027e-09
2.0176e-08
8.00574e-09
1.18658e-08
1.19131e-08
1.87204e-09
1.53337e-08
-9.80168e-09
1.83397e-08
-2.31421e-08
2.10485e-08
-3.814e-08
2.35937e-08
-5.48056e-08
2.6102e-08
-7.31769e-08
2.86745e-08
-9.33327e-08
3.13785e-08
-1.15353e-07
3.42542e-08
-1.39231e-07
3.73272e-08
-1.64984e-07
4.06039e-08
-1.92677e-07
4.40715e-08
-2.22329e-07
4.77023e-08
-2.53917e-07
5.14515e-08
-2.87373e-07
5.52613e-08
-3.2259e-07
5.90666e-08
-3.5943e-07
6.28034e-08
-3.97735e-07
6.64106e-08
-4.37334e-07
6.98282e-08
-4.78043e-07
7.30034e-08
-5.19673e-07
7.58934e-08
-5.62034e-07
7.84671e-08
-6.04942e-07
8.07058e-08
-6.48223e-07
8.26036e-08
-6.91723e-07
8.41629e-08
-7.35302e-07
8.53928e-08
-7.78847e-07
8.63139e-08
-8.22262e-07
8.6954e-08
-8.65475e-07
8.73444e-08
-9.08429e-07
8.75182e-08
-9.51087e-07
8.75082e-08
-9.93425e-07
8.73466e-08
-1.03543e-06
8.70634e-08
-1.07711e-06
8.66865e-08
-1.11847e-06
8.62427e-08
-1.15952e-06
8.57584e-08
-1.20028e-06
8.52584e-08
-1.24074e-06
8.4762e-08
-1.2809e-06
8.42757e-08
-1.32077e-06
8.37988e-08
-1.36033e-06
8.33309e-08
-1.39961e-06
8.28699e-08
-1.4386e-06
8.24135e-08
-1.4773e-06
8.19583e-08
-1.51572e-06
8.15009e-08
-1.55384e-06
8.10371e-08
-1.59166e-06
8.05628e-08
-1.62918e-06
8.00732e-08
-1.66638e-06
7.95639e-08
-1.70324e-06
7.90298e-08
-1.73977e-06
7.84663e-08
-1.77592e-06
7.78684e-08
-1.8117e-06
7.72315e-08
-1.84707e-06
7.65509e-08
-1.88201e-06
7.58222e-08
-1.9165e-06
7.5041e-08
-1.9505e-06
7.42035e-08
-1.984e-06
7.33056e-08
-2.01696e-06
7.23439e-08
-2.04934e-06
7.13151e-08
-2.08112e-06
7.02163e-08
-2.11227e-06
6.90447e-08
-2.14274e-06
6.7798e-08
-2.17251e-06
6.64738e-08
-2.20153e-06
6.50704e-08
-2.22978e-06
6.35863e-08
-2.25721e-06
6.20199e-08
-2.28379e-06
6.03706e-08
-2.30948e-06
5.86375e-08
-2.33424e-06
5.682e-08
-2.35804e-06
5.49179e-08
-2.38083e-06
5.29313e-08
-2.40259e-06
5.08601e-08
-2.42327e-06
4.87049e-08
-2.44283e-06
4.6466e-08
-2.46125e-06
4.41441e-08
-2.47848e-06
4.174e-08
-2.49449e-06
3.92547e-08
-2.50925e-06
3.66892e-08
-2.52271e-06
3.40448e-08
-2.53486e-06
3.13219e-08
-2.54565e-06
2.85211e-08
-2.55507e-06
2.56426e-08
-2.56307e-06
2.26871e-08
-2.56964e-06
1.9655e-08
-2.57476e-06
1.65472e-08
-2.57842e-06
1.33656e-08
-2.58063e-06
1.01143e-08
-2.58142e-06
6.80237e-09
-2.58086e-06
3.4505e-09
-2.57905e-06
1.01756e-10
-2.57604e-06
-3.19775e-09
-2.57167e-06
-6.46573e-09
-2.56574e-06
-9.74507e-09
-2.5582e-06
-1.304e-08
-2.54903e-06
-1.6349e-08
-2.53822e-06
-1.96724e-08
-2.52575e-06
-2.30069e-08
-2.51162e-06
-2.63487e-08
-2.49585e-06
-2.96925e-08
-2.47841e-06
-3.30332e-08
-2.45933e-06
-3.63652e-08
-2.4386e-06
-3.96829e-08
-2.41624e-06
-4.29806e-08
-2.39226e-06
-4.62525e-08
-2.36668e-06
-4.94929e-08
-2.33951e-06
-5.26963e-08
-2.31078e-06
-5.5857e-08
-2.28051e-06
-5.89689e-08
-2.24872e-06
-6.20267e-08
-2.21546e-06
-6.5025e-08
-2.18074e-06
-6.79588e-08
-2.14461e-06
-7.08232e-08
-2.1071e-06
-7.36131e-08
-2.06825e-06
-7.63235e-08
-2.0281e-06
-7.89502e-08
-1.9867e-06
-8.14888e-08
-1.94409e-06
-8.3936e-08
-1.90032e-06
-8.62885e-08
-1.85544e-06
-8.85446e-08
-1.80949e-06
-9.07034e-08
-1.76252e-06
-9.27663e-08
-1.71458e-06
-9.47369e-08
-1.66571e-06
-9.66167e-08
-1.61597e-06
-9.83922e-08
-1.5654e-06
-1.00054e-07
-1.51407e-06
-1.01613e-07
-1.462e-06
-1.03077e-07
-1.40926e-06
-1.04441e-07
-1.35588e-06
-1.05706e-07
-1.30192e-06
-1.06876e-07
-1.24742e-06
-1.07954e-07
-1.19243e-06
-1.08946e-07
-1.13698e-06
-1.09855e-07
-1.08112e-06
-1.10685e-07
-1.02488e-06
-1.1144e-07
-9.68291e-07
-1.12124e-07
-9.11391e-07
-1.12741e-07
-8.54208e-07
-1.13295e-07
-7.96771e-07
-1.13793e-07
-7.39103e-07
-1.14237e-07
-6.81229e-07
-1.14633e-07
-6.23168e-07
-1.14986e-07
-5.6494e-07
-1.15302e-07
-5.06558e-07
-1.15583e-07
-4.48037e-07
-1.15838e-07
-3.89388e-07
-1.16067e-07
-3.30619e-07
-1.16278e-07
-2.71736e-07
-1.16473e-07
-2.12746e-07
-1.16656e-07
-1.53651e-07
-1.1683e-07
-9.44566e-08
-1.16996e-07
-3.51741e-08
-1.17144e-07
2.41781e-08
-1.17273e-07
8.36081e-08
-1.17384e-07
1.43164e-07
-1.17458e-07
2.02911e-07
-1.17471e-07
2.62785e-07
-1.17485e-07
3.22725e-07
-1.17548e-07
3.82759e-07
-1.17654e-07
4.42888e-07
-1.17806e-07
5.031e-07
-1.17968e-07
5.63354e-07
-1.18075e-07
6.23563e-07
-1.18031e-07
6.83559e-07
-1.17674e-07
7.43039e-07
-1.16722e-07
8.0146e-07
-1.14644e-07
8.57747e-07
-1.10262e-07
9.10245e-07
-1.01241e-07
9.54996e-07
-8.12316e-08
-3.1071e-08
9.93472e-07
8.45313e-09
-2.82772e-08
1.22313e-08
-2.85258e-08
1.21583e-08
-2.17705e-08
9.39734e-09
-1.43382e-08
4.61986e-09
-7.0388e-09
-1.80915e-09
-1.61473e-11
-9.71598e-09
6.65713e-09
-1.90391e-08
1.29238e-08
-2.9788e-08
1.87527e-08
-4.20192e-08
2.41423e-08
-5.58124e-08
2.9125e-08
-7.12458e-08
3.37711e-08
-8.83798e-08
3.81806e-08
-1.07255e-07
4.24665e-08
-1.27891e-07
4.67363e-08
-1.50295e-07
5.10773e-08
-1.74466e-07
5.55474e-08
-2.00387e-07
6.01734e-08
-2.28017e-07
6.49557e-08
-2.57287e-07
6.98725e-08
-2.88101e-07
7.48836e-08
-3.20333e-07
7.99332e-08
-3.53838e-07
8.49541e-08
-3.88452e-07
8.98732e-08
-4.24005e-07
9.46182e-08
-4.60325e-07
9.91212e-08
-4.97239e-07
1.03323e-07
-5.34586e-07
1.07173e-07
-5.72219e-07
1.10635e-07
-6.10013e-07
1.13684e-07
-6.47856e-07
1.16309e-07
-6.8566e-07
1.18507e-07
-7.23344e-07
1.20287e-07
-7.60856e-07
1.21673e-07
-7.98165e-07
1.227e-07
-8.35258e-07
1.23405e-07
-8.7213e-07
1.23825e-07
-9.08785e-07
1.23997e-07
-9.45227e-07
1.2396e-07
-9.8147e-07
1.23749e-07
-1.01753e-06
1.234e-07
-1.05341e-06
1.22944e-07
-1.08913e-06
1.22407e-07
-1.1247e-06
1.21815e-07
-1.16013e-06
1.2119e-07
-1.19543e-06
1.20551e-07
-1.23057e-06
1.19909e-07
-1.26557e-06
1.1927e-07
-1.30041e-06
1.18636e-07
-1.33509e-06
1.18008e-07
-1.3696e-06
1.17383e-07
-1.40394e-06
1.16757e-07
-1.43811e-06
1.16127e-07
-1.4721e-06
1.15487e-07
-1.5059e-06
1.14833e-07
-1.53949e-06
1.14157e-07
-1.57288e-06
1.13454e-07
-1.60603e-06
1.12718e-07
-1.63895e-06
1.11941e-07
-1.6716e-06
1.11118e-07
-1.70397e-06
1.10241e-07
-1.73605e-06
1.09304e-07
-1.7678e-06
1.08302e-07
-1.79921e-06
1.07227e-07
-1.83024e-06
1.06075e-07
-1.86088e-06
1.04839e-07
-1.89109e-06
1.03515e-07
-1.92084e-06
1.02098e-07
-1.95011e-06
1.00583e-07
-1.97886e-06
9.8966e-08
-2.00706e-06
9.72437e-08
-2.03468e-06
9.54124e-08
-2.06167e-06
9.34693e-08
-2.08802e-06
9.14118e-08
-2.11367e-06
8.92375e-08
-2.13859e-06
8.69449e-08
-2.16276e-06
8.45324e-08
-2.18612e-06
8.1999e-08
-2.20864e-06
7.9344e-08
-2.23029e-06
7.6567e-08
-2.25103e-06
7.3668e-08
-2.27082e-06
7.06472e-08
-2.28962e-06
6.75053e-08
-2.3074e-06
6.42431e-08
-2.32411e-06
6.08617e-08
-2.33974e-06
5.73626e-08
-2.35423e-06
5.37473e-08
-2.36756e-06
5.00181e-08
-2.37969e-06
4.6177e-08
-2.39059e-06
4.22264e-08
-2.40024e-06
3.81682e-08
-2.4086e-06
3.40054e-08
-2.41566e-06
2.97415e-08
-2.42138e-06
2.53807e-08
-2.42576e-06
2.09288e-08
-2.42879e-06
1.63933e-08
-2.43047e-06
1.17849e-08
-2.43078e-06
7.11754e-09
-2.42974e-06
2.41124e-09
-2.42733e-06
-2.31139e-09
-2.42349e-06
-7.043e-09
-2.41815e-06
-1.1806e-08
-2.41128e-06
-1.6617e-08
-2.40286e-06
-2.1469e-08
-2.39285e-06
-2.63541e-08
-2.38126e-06
-3.12654e-08
-2.36808e-06
-3.61958e-08
-2.35329e-06
-4.11377e-08
-2.3369e-06
-4.60832e-08
-2.31891e-06
-5.10241e-08
-2.29932e-06
-5.59524e-08
-2.27814e-06
-6.08594e-08
-2.25538e-06
-6.57366e-08
-2.23106e-06
-7.05756e-08
-2.20518e-06
-7.53679e-08
-2.17777e-06
-8.0105e-08
-2.14885e-06
-8.47784e-08
-2.11843e-06
-8.93799e-08
-2.08656e-06
-9.3901e-08
-2.05325e-06
-9.8334e-08
-2.01853e-06
-1.02671e-07
-1.98245e-06
-1.06906e-07
-1.94503e-06
-1.1103e-07
-1.90631e-06
-1.15037e-07
-1.86634e-06
-1.18919e-07
-1.82516e-06
-1.22673e-07
-1.7828e-06
-1.26291e-07
-1.73932e-06
-1.29769e-07
-1.69476e-06
-1.33105e-07
-1.64917e-06
-1.36297e-07
-1.60259e-06
-1.39347e-07
-1.55507e-06
-1.42259e-07
-1.50665e-06
-1.45033e-07
-1.45739e-06
-1.47657e-07
-1.40732e-06
-1.5012e-07
-1.3565e-06
-1.52433e-07
-1.30498e-06
-1.54603e-07
-1.25278e-06
-1.56626e-07
-1.19998e-06
-1.58506e-07
-1.1466e-06
-1.60247e-07
-1.09269e-06
-1.61854e-07
-1.03829e-06
-1.63334e-07
-9.83443e-07
-1.64693e-07
-9.28181e-07
-1.65937e-07
-8.72539e-07
-1.67072e-07
-8.16549e-07
-1.68102e-07
-7.60242e-07
-1.69037e-07
-7.03646e-07
-1.69881e-07
-6.46786e-07
-1.70641e-07
-5.89686e-07
-1.71325e-07
-5.32367e-07
-1.7194e-07
-4.74847e-07
-1.72494e-07
-4.17144e-07
-1.72992e-07
-3.59272e-07
-1.73443e-07
-3.01243e-07
-1.73855e-07
-2.43066e-07
-1.74232e-07
-1.8475e-07
-1.74582e-07
-1.263e-07
-1.74911e-07
-6.77211e-08
-1.75223e-07
-9.01972e-09
-1.7552e-07
4.97985e-08
-1.75803e-07
1.08738e-07
-1.76073e-07
1.67808e-07
-1.76333e-07
2.27015e-07
-1.76582e-07
2.86377e-07
-1.7681e-07
3.45927e-07
-1.77013e-07
4.05663e-07
-1.77213e-07
4.65557e-07
-1.77434e-07
5.25596e-07
-1.77686e-07
5.8576e-07
-1.77963e-07
6.46017e-07
-1.78218e-07
7.06313e-07
-1.78364e-07
7.66552e-07
-1.78263e-07
8.2657e-07
-1.77687e-07
8.86091e-07
-1.76238e-07
9.44657e-07
-1.73206e-07
1.00156e-06
-1.67158e-07
1.05581e-06
-1.55487e-07
1.10665e-06
-1.32072e-07
-8.33831e-08
1.15897e-06
1.529e-09
-2.98097e-08
-2.01859e-09
-2.49821e-08
-8.02346e-09
-1.57681e-08
-1.56608e-08
-6.7028e-09
-2.46217e-08
1.92044e-09
-3.47694e-08
1.01299e-08
-4.60635e-08
1.79498e-08
-5.85267e-08
2.53854e-08
-7.22186e-08
3.24432e-08
-8.72213e-08
3.91433e-08
-1.03623e-07
4.55253e-08
-1.21503e-07
5.16497e-08
-1.40917e-07
5.75932e-08
-1.6189e-07
6.34379e-08
-1.84414e-07
6.92584e-08
-2.08449e-07
7.51114e-08
-2.33931e-07
8.10282e-08
-2.60772e-07
8.70129e-08
-2.88862e-07
9.30442e-08
-3.18071e-07
9.90802e-08
-3.48252e-07
1.05064e-07
-3.79249e-07
1.10929e-07
-4.10902e-07
1.16606e-07
-4.43057e-07
1.22027e-07
-4.75569e-07
1.27129e-07
-5.08308e-07
1.31859e-07
-5.41159e-07
1.36172e-07
-5.74028e-07
1.4004e-07
-6.06839e-07
1.43445e-07
-6.39537e-07
1.46381e-07
-6.72086e-07
1.48856e-07
-7.04465e-07
1.50885e-07
-7.36674e-07
1.52495e-07
-7.68723e-07
1.5372e-07
-8.00625e-07
1.54601e-07
-8.32398e-07
1.55177e-07
-8.6406e-07
1.55486e-07
-8.95631e-07
1.55567e-07
-9.27129e-07
1.55457e-07
-9.58573e-07
1.55191e-07
-9.89973e-07
1.548e-07
-1.02134e-06
1.54312e-07
-1.05269e-06
1.53751e-07
-1.08401e-06
1.53138e-07
-1.11531e-06
1.52491e-07
-1.14659e-06
1.51824e-07
-1.17782e-06
1.51145e-07
-1.20901e-06
1.50461e-07
-1.24015e-06
1.49773e-07
-1.27123e-06
1.49082e-07
-1.30223e-06
1.48385e-07
-1.33315e-06
1.47677e-07
-1.36398e-06
1.46955e-07
-1.3947e-06
1.46211e-07
-1.42531e-06
1.4544e-07
-1.45579e-06
1.44635e-07
-1.48612e-06
1.43787e-07
-1.5163e-06
1.42889e-07
-1.54629e-06
1.41934e-07
-1.57609e-06
1.40912e-07
-1.60566e-06
1.39817e-07
-1.635e-06
1.3864e-07
-1.66407e-06
1.37373e-07
-1.69286e-06
1.3601e-07
-1.72133e-06
1.34544e-07
-1.74946e-06
1.32966e-07
-1.77721e-06
1.31272e-07
-1.80457e-06
1.29455e-07
-1.8315e-06
1.27509e-07
-1.85796e-06
1.25429e-07
-1.88393e-06
1.23211e-07
-1.90937e-06
1.20851e-07
-1.93424e-06
1.18344e-07
-1.95852e-06
1.15687e-07
-1.98216e-06
1.12878e-07
-2.00513e-06
1.09915e-07
-2.02739e-06
1.06794e-07
-2.04891e-06
1.03516e-07
-2.06965e-06
1.0008e-07
-2.08956e-06
9.64839e-08
-2.10863e-06
9.27288e-08
-2.12679e-06
8.88151e-08
-2.14403e-06
8.47434e-08
-2.1603e-06
8.05153e-08
-2.17558e-06
7.61321e-08
-2.18981e-06
7.15962e-08
-2.20297e-06
6.691e-08
-2.21503e-06
6.20764e-08
-2.22595e-06
5.70989e-08
-2.2357e-06
5.19811e-08
-2.24426e-06
4.6727e-08
-2.2516e-06
4.13413e-08
-2.25769e-06
3.58298e-08
-2.26251e-06
3.01993e-08
-2.26604e-06
2.44578e-08
-2.26826e-06
1.8615e-08
-2.26916e-06
1.26824e-08
-2.26872e-06
6.6732e-09
-2.26691e-06
6.01518e-10
-2.2637e-06
-5.5214e-09
-2.25905e-06
-1.16951e-08
-2.25293e-06
-1.79305e-08
-2.24532e-06
-2.42315e-08
-2.2362e-06
-3.05901e-08
-2.22556e-06
-3.69958e-08
-2.21339e-06
-4.34383e-08
-2.19968e-06
-4.99072e-08
-2.18442e-06
-5.63919e-08