/*--------------------------------*- C++ -*----------------------------------*\
| =========                 |                                                 |
| \\      /  F ield         | OpenFOAM: The Open Source CFD Toolbox           |
|  \\    /   O peration     | Version:  2212                                  |
|   \\  /    A nd           | Website:  www.openfoam.com                      |
|    \\/     M anipulation  |                                                 |
\*---------------------------------------------------------------------------*/
FoamFile
{
    version     2.0;
    format      ascii;
    arch        "LSB;label=32;scalar=64";
    class       volVectorField;
    location    "250";
    object      U;
}
// * * * * * * * * * * * * * * * * * * * * * * * * * * * * * * * * * * * * * //

dimensions      [0 1 -1 0 0 0 0];

internalField   nonuniform List<vector> 
12225
(
(9.84118 -0.956371 0)
(9.59253 -0.887947 0)
(9.31755 -0.59449 0)
(9.0147 -0.370009 0)
(8.72576 -0.225974 0)
(8.4671 -0.137865 0)
(8.23999 -0.0844804 0)
(8.04167 -0.0516235 0)
(7.8697 -0.0312268 0)
(7.72065 -0.0185925 0)
(7.5915 -0.0106506 0)
(7.47916 -0.00571174 0)
(7.38143 -0.00270907 0)
(7.29635 -0.00099674 0)
(7.22222 -0.000112401 0)
(7.16005 -0.000480669 0)
(7.10026 0.00263975 0)
(7.07206 -0.0178012 0)
(10.0722 0.255857 0)
(10.1867 0.418359 0)
(10.2285 0.384146 0)
(10.2296 0.310412 0)
(10.2114 0.24569 0)
(10.1794 0.195445 0)
(10.1334 0.157688 0)
(10.0759 0.129681 0)
(10.0105 0.108834 0)
(9.94085 0.0931026 0)
(9.86923 0.0809301 0)
(9.79741 0.0713198 0)
(9.72646 0.0635253 0)
(9.65753 0.0570731 0)
(9.59099 0.0513212 0)
(9.52781 0.0467232 0)
(9.46856 0.040249 0)
(9.41523 0.0403634 0)
(10.0032 0.0599591 0)
(10.0309 0.0483014 0)
(10.0614 0.0100104 0)
(10.0898 1.05483e-05 0)
(10.1151 0.00817822 0)
(10.1376 0.0194358 0)
(10.1547 0.0290269 0)
(10.1657 0.0365131 0)
(10.1714 0.0420743 0)
(10.173 0.0459306 0)
(10.1711 0.0483957 0)
(10.1662 0.0497653 0)
(10.1591 0.0502764 0)
(10.1502 0.0500792 0)
(10.14 0.0492109 0)
(10.1291 0.0476818 0)
(10.1182 0.045211 0)
(10.1062 0.0404403 0)
(9.99715 0.00991966 0)
(10.009 0.0261008 0)
(10.0342 0.0383128 0)
(10.0554 0.0534018 0)
(10.0721 0.0649329 0)
(10.0875 0.0702747 0)
(10.1015 0.0714277 0)
(10.1134 0.070673 0)
(10.1236 0.0690954 0)
(10.1325 0.0671216 0)
(10.1404 0.0649513 0)
(10.1472 0.0627073 0)
(10.1532 0.0604104 0)
(10.1585 0.0580408 0)
(10.1631 0.055463 0)
(10.1674 0.0525389 0)
(10.1712 0.0487897 0)
(10.1742 0.0431075 0)
(9.99907 0.00681204 0)
(10.0082 0.0343104 0)
(10.0279 0.0483634 0)
(10.0436 0.0549074 0)
(10.0558 0.0583755 0)
(10.0678 0.0595573 0)
(10.0793 0.0593271 0)
(10.0897 0.0585849 0)
(10.0991 0.0576918 0)
(10.1077 0.0566825 0)
(10.1157 0.055549 0)
(10.1232 0.0542863 0)
(10.1302 0.0528717 0)
(10.1369 0.0512487 0)
(10.1433 0.0493 0)
(10.1495 0.0468699 0)
(10.1553 0.0436371 0)
(10.1604 0.0392938 0)
(10.0002 0.00924615 0)
(10.008 0.0334172 0)
(10.0236 0.044086 0)
(10.0369 0.0484153 0)
(10.0478 0.0518772 0)
(10.0585 0.0542751 0)
(10.069 0.0553073 0)
(10.0785 0.0554707 0)
(10.0871 0.0551584 0)
(10.0951 0.054501 0)
(10.1026 0.0535528 0)
(10.1097 0.0523564 0)
(10.1165 0.0509233 0)
(10.123 0.0492244 0)
(10.1293 0.0471759 0)
(10.1354 0.04466 0)
(10.1411 0.0415088 0)
(10.1462 0.037601 0)
(10.0003 0.00912853 0)
(10.007 0.0287654 0)
(10.0201 0.038905 0)
(10.0322 0.0440412 0)
(10.0425 0.0481445 0)
(10.0525 0.0509481 0)
(10.0622 0.0521935 0)
(10.0711 0.0524286 0)
(10.0793 0.0521171 0)
(10.0868 0.0514341 0)
(10.094 0.0504495 0)
(10.1008 0.0492087 0)
(10.1073 0.0477274 0)
(10.1136 0.0459801 0)
(10.1196 0.0439043 0)
(10.1253 0.0414144 0)
(10.1306 0.0384214 0)
(10.1353 0.0348877 0)
(10.0004 0.00814764 0)
(10.006 0.0247185 0)
(10.0171 0.0348955 0)
(10.0283 0.040544 0)
(10.0381 0.0446235 0)
(10.0475 0.0473384 0)
(10.0566 0.0486184 0)
(10.0652 0.0489349 0)
(10.073 0.0487009 0)
(10.0804 0.0480833 0)
(10.0873 0.0471505 0)
(10.0939 0.0459449 0)
(10.1002 0.0444851 0)
(10.1062 0.0427541 0)
(10.1119 0.0407117 0)
(10.1173 0.038305 0)
(10.1223 0.0354972 0)
(10.1267 0.0323058 0)
(10.0004 0.00721272 0)
(10.0052 0.0215257 0)
(10.0146 0.0312805 0)
(10.0248 0.0369631 0)
(10.0341 0.0408625 0)
(10.0429 0.0434922 0)
(10.0516 0.0448569 0)
(10.0598 0.0452991 0)
(10.0675 0.0451672 0)
(10.0746 0.0446267 0)
(10.0814 0.0437512 0)
(10.0878 0.0425855 0)
(10.0939 0.0411544 0)
(10.0997 0.0394537 0)
(10.1052 0.037464 0)
(10.1103 0.0351614 0)
(10.115 0.0325425 0)
(10.1192 0.0296543 0)
(10.0004 0.0063742 0)
(10.0045 0.0187525 0)
(10.0125 0.0277591 0)
(10.0216 0.0333021 0)
(10.0303 0.0370513 0)
(10.0387 0.0396057 0)
(10.0469 0.0410237 0)
(10.0548 0.0415563 0)
(10.0622 0.0415001 0)
(10.0692 0.0410206 0)
(10.0758 0.0401959 0)
(10.082 0.0390737 0)
(10.088 0.0376839 0)
(10.0936 0.0360343 0)
(10.0989 0.0341226 0)
(10.1038 0.0319472 0)
(10.1082 0.0295241 0)
(10.1123 0.0269127 0)
(10.0004 0.00558479 0)
(10.0039 0.0162558 0)
(10.0107 0.0243972 0)
(10.0189 0.0296923 0)
(10.0269 0.0332711 0)
(10.0348 0.0357083 0)
(10.0426 0.0371175 0)
(10.0501 0.0376952 0)
(10.0573 0.0376892 0)
(10.064 0.0372574 0)
(10.0704 0.0364804 0)
(10.0765 0.0354071 0)
(10.0822 0.0340715 0)
(10.0877 0.0324914 0)
(10.0928 0.0306777 0)
(10.0975 0.028644 0)
(10.1018 0.0264168 0)
(10.1057 0.0240593 0)
(10.0003 0.0048804 0)
(10.0034 0.0141559 0)
(10.0093 0.0214728 0)
(10.0167 0.0264457 0)
(10.0242 0.0298236 0)
(10.0316 0.0321162 0)
(10.039 0.0334742 0)
(10.0461 0.0340604 0)
(10.053 0.0340808 0)
(10.0595 0.0336817 0)
(10.0657 0.0329436 0)
(10.0716 0.0319168 0)
(10.0772 0.0306382 0)
(10.0825 0.0291329 0)
(10.0874 0.0274207 0)
(10.0919 0.025524 0)
(10.0961 0.0234735 0)
(10.0999 0.021332 0)
(10.0003 0.00421981 0)
(10.003 0.0122307 0)
(10.0082 0.018711 0)
(10.0148 0.0232796 0)
(10.0217 0.0264174 0)
(10.0287 0.0285424 0)
(10.0357 0.0298191 0)
(10.0425 0.0303878 0)
(10.0491 0.0304185 0)
(10.0554 0.0300427 0)
(10.0614 0.0293392 0)
(10.0671 0.0283593 0)
(10.0724 0.0271421 0)
(10.0775 0.0257174 0)
(10.0823 0.0241112 0)
(10.0866 0.0223512 0)
(10.0907 0.0204689 0)
(10.0943 0.0185261 0)
(10.0003 0.00353162 0)
(10.0026 0.010224 0)
(10.0071 0.0157477 0)
(10.0129 0.0197739 0)
(10.0193 0.0225773 0)
(10.0258 0.0244701 0)
(10.0323 0.0256127 0)
(10.0387 0.0261258 0)
(10.045 0.0261442 0)
(10.051 0.0257806 0)
(10.0567 0.0251097 0)
(10.0622 0.0241824 0)
(10.0674 0.0230385 0)
(10.0722 0.021711 0)
(10.0768 0.0202292 0)
(10.081 0.0186238 0)
(10.0849 0.0169247 0)
(10.0884 0.01519 0)
(10.0002 0.00281205 0)
(10.0022 0.00813166 0)
(10.006 0.0125935 0)
(10.0112 0.0159364 0)
(10.0169 0.0182927 0)
(10.0229 0.0198733 0)
(10.0289 0.0208166 0)
(10.035 0.0212235 0)
(10.0409 0.0211971 0)
(10.0466 0.0208284 0)
(10.0521 0.0201844 0)
(10.0573 0.0193133 0)
(10.0622 0.0182536 0)
(10.0669 0.0170385 0)
(10.0712 0.0156982 0)
(10.0752 0.0142627 0)
(10.0789 0.0127591 0)
(10.0824 0.0112391 0)
(10.0002 0.00206142 0)
(10.0019 0.00595676 0)
(10.0052 0.0092589 0)
(10.0097 0.011776 0)
(10.0148 0.0135568 0)
(10.0202 0.0147276 0)
(10.0258 0.0153923 0)
(10.0314 0.0156292 0)
(10.037 0.0155132 0)
(10.0424 0.015113 0)
(10.0475 0.0144835 0)
(10.0525 0.0136668 0)
(10.0572 0.0126974 0)
(10.0616 0.0116057 0)
(10.0657 0.0104191 0)
(10.0696 0.0091645 0)
(10.0732 0.00786393 0)
(10.0765 0.00656187 0)
(10.0002 0.00127821 0)
(10.0016 0.00368753 0)
(10.0045 0.00572993 0)
(10.0084 0.0072796 0)
(10.013 0.00834613 0)
(10.018 0.0089943 0)
(10.0231 0.00928839 0)
(10.0283 0.00928064 0)
(10.0335 0.00901995 0)
(10.0386 0.00855234 0)
(10.0435 0.00791703 0)
(10.0482 0.00714598 0)
(10.0526 0.00626617 0)
(10.0568 0.00530166 0)
(10.0608 0.00427431 0)
(10.0645 0.00320498 0)
(10.068 0.00210972 0)
(10.0712 0.00102465 0)
(10.0002 0.000447021 0)
(10.0014 0.00127331 0)
(10.004 0.00193432 0)
(10.0075 0.0023667 0)
(10.0117 0.0025696 0)
(10.0163 0.0025665 0)
(10.0211 0.00238357 0)
(10.026 0.00204458 0)
(10.0309 0.00157315 0)
(10.0357 0.000992113 0)
(10.0404 0.000321738 0)
(10.0448 -0.000420454 0)
(10.0491 -0.00121881 0)
(10.0531 -0.00205877 0)
(10.0569 -0.00292685 0)
(10.0605 -0.00380994 0)
(10.0639 -0.00469883 0)
(10.067 -0.00556626 0)
(10.0001 -0.000475057 0)
(10.0014 -0.0014087 0)
(10.0038 -0.00230555 0)
(10.0071 -0.00316337 0)
(10.0112 -0.00397843 0)
(10.0156 -0.00476144 0)
(10.0202 -0.00552645 0)
(10.025 -0.00628098 0)
(10.0297 -0.00702762 0)
(10.0343 -0.00776829 0)
(10.0389 -0.00850482 0)
(10.0432 -0.00923785 0)
(10.0474 -0.00996662 0)
(10.0513 -0.0106893 0)
(10.055 -0.0114032 0)
(10.0585 -0.0121051 0)
(10.0618 -0.0127933 0)
(10.0649 -0.0134508 0)
(10.0002 -0.00134829 0)
(10.0014 -0.00395824 0)
(10.004 -0.00634888 0)
(10.0075 -0.00843622 0)
(10.0117 -0.0102078 0)
(10.0163 -0.0117182 0)
(10.021 -0.0130233 0)
(10.0259 -0.0141578 0)
(10.0306 -0.01515 0)
(10.0354 -0.0160289 0)
(10.0399 -0.0168197 0)
(10.0443 -0.0175406 0)
(10.0484 -0.0182046 0)
(10.0524 -0.0188215 0)
(10.0561 -0.0193989 0)
(10.0596 -0.0199416 0)
(10.0629 -0.0204545 0)
(10.066 -0.0209286 0)
(10.0002 -0.00208846 0)
(10.0016 -0.0061542 0)
(10.0043 -0.00984819 0)
(10.0083 -0.012943 0)
(10.0129 -0.0154457 0)
(10.0177 -0.0175062 0)
(10.0227 -0.0192227 0)
(10.0278 -0.020635 0)
(10.0328 -0.0217883 0)
(10.0376 -0.0227402 0)
(10.0423 -0.0235398 0)
(10.0467 -0.0242218 0)
(10.051 -0.0248113 0)
(10.055 -0.0253284 0)
(10.0588 -0.0257883 0)
(10.0623 -0.0262021 0)
(10.0656 -0.0265789 0)
(10.0688 -0.0269155 0)
(10.0002 -0.00277263 0)
(10.0017 -0.00828797 0)
(10.0049 -0.0133155 0)
(10.0094 -0.0173271 0)
(10.0145 -0.020404 0)
(10.0198 -0.0228779 0)
(10.0251 -0.0249024 0)
(10.0305 -0.0265176 0)
(10.0357 -0.0277842 0)
(10.0408 -0.0287804 0)
(10.0456 -0.0295686 0)
(10.0502 -0.0301936 0)
(10.0546 -0.030692 0)
(10.0586 -0.0310943 0)
(10.0625 -0.031424 0)
(10.0661 -0.0316979 0)
(10.0695 -0.0319289 0)
(10.0726 -0.0321168 0)
(10.0001 -0.00338146 0)
(10.0017 -0.0103973 0)
(10.0055 -0.0167676 0)
(10.0109 -0.0216083 0)
(10.0166 -0.0252292 0)
(10.0223 -0.0280859 0)
(10.028 -0.0303062 0)
(10.0337 -0.0319745 0)
(10.0393 -0.0332346 0)
(10.0445 -0.0342045 0)
(10.0496 -0.0349496 0)
(10.0543 -0.0355141 0)
(10.0588 -0.0359386 0)
(10.063 -0.0362584 0)
(10.0669 -0.0365 0)
(10.0706 -0.036682 0)
(10.074 -0.0368192 0)
(10.0772 -0.0369171 0)
(10.0001 -0.00387049 0)
(10.0016 -0.0128895 0)
(10.0061 -0.0203166 0)
(10.0124 -0.0253771 0)
(10.0188 -0.0294325 0)
(10.025 -0.0328928 0)
(10.0312 -0.0354901 0)
(10.0373 -0.0372547 0)
(10.0431 -0.0384519 0)
(10.0486 -0.0392827 0)
(10.0538 -0.0398448 0)
(10.0587 -0.0402036 0)
(10.0633 -0.0404176 0)
(10.0676 -0.0405347 0)
(10.0716 -0.0405876 0)
(10.0754 -0.0405978 0)
(10.0789 -0.0405787 0)
(10.0821 -0.0405269 0)
(9.9998 -0.00354823 0)
(10.0012 -0.0165488 0)
(10.007 -0.0255179 0)
(10.0141 -0.0296897 0)
(10.0207 -0.0330088 0)
(10.0273 -0.0364612 0)
(10.0342 -0.0393903 0)
(10.0409 -0.0415641 0)
(10.0473 -0.0431419 0)
(10.0532 -0.0442707 0)
(10.0588 -0.045031 0)
(10.064 -0.0454973 0)
(10.0689 -0.0457464 0)
(10.0734 -0.0458429 0)
(10.0776 -0.0458343 0)
(10.0815 -0.0457541 0)
(10.0852 -0.0456278 0)
(10.0886 -0.0454655 0)
(9.99829 8.78535e-07 0)
(9.99797 -0.0176183 0)
(10.0068 -0.0315008 0)
(10.0162 -0.0375841 0)
(10.0234 -0.0402794 0)
(10.0303 -0.0418284 0)
(10.0379 -0.0427818 0)
(10.0455 -0.0434739 0)
(10.0527 -0.0440714 0)
(10.0594 -0.044582 0)
(10.0657 -0.0449727 0)
(10.0716 -0.045255 0)
(10.0771 -0.0454511 0)
(10.0821 -0.0455888 0)
(10.0868 -0.0456823 0)
(10.0911 -0.045748 0)
(10.0951 -0.0457912 0)
(10.0987 -0.0457797 0)
(9.99413 0.00277693 0)
(9.98996 -0.00759979 0)
(10.0032 -0.0228581 0)
(10.0185 -0.0396775 0)
(10.0302 -0.0530672 0)
(10.0403 -0.0608368 0)
(10.0501 -0.0643712 0)
(10.0593 -0.0656169 0)
(10.0678 -0.0657024 0)
(10.0756 -0.065075 0)
(10.083 -0.0640173 0)
(10.0897 -0.0627192 0)
(10.0959 -0.0613436 0)
(10.1016 -0.0599708 0)
(10.1067 -0.0586662 0)
(10.1114 -0.0574587 0)
(10.1157 -0.0563743 0)
(10.1196 -0.0553655 0)
(9.9942 -0.0305071 0)
(9.99526 -0.0134565 0)
(10.0086 0.0215205 0)
(10.0272 0.0320195 0)
(10.047 0.024146 0)
(10.0668 0.0116051 0)
(10.085 -0.000111593 0)
(10.1007 -0.010326 0)
(10.1139 -0.0189645 0)
(10.1251 -0.0260357 0)
(10.1343 -0.0316347 0)
(10.1418 -0.0360042 0)
(10.1476 -0.0393757 0)
(10.152 -0.0419665 0)
(10.155 -0.04394 0)
(10.1569 -0.0454655 0)
(10.1579 -0.0466723 0)
(10.1579 -0.0477057 0)
(10.0368 -0.209412 0)
(10.1083 -0.365899 0)
(10.1423 -0.352746 0)
(10.1567 -0.298034 0)
(10.1697 -0.247622 0)
(10.182 -0.20679 0)
(10.1884 -0.174352 0)
(10.1867 -0.148988 0)
(10.1774 -0.129269 0)
(10.1619 -0.113744 0)
(10.1414 -0.101346 0)
(10.1169 -0.0913149 0)
(10.0894 -0.0831199 0)
(10.0598 -0.0763552 0)
(10.0288 -0.0707403 0)
(9.99692 -0.0660951 0)
(9.96472 -0.0622693 0)
(9.93284 -0.0595641 0)
(9.92866 0.765531 0)
(9.83924 0.742069 0)
(9.70534 0.524432 0)
(9.52636 0.348784 0)
(9.33186 0.227692 0)
(9.14063 0.146988 0)
(8.95883 0.093585 0)
(8.78893 0.0579915 0)
(8.63234 0.034127 0)
(8.48968 0.0181104 0)
(8.36032 0.0074462 0)
(8.24346 0.000468632 0)
(8.13792 -0.00407871 0)
(8.04264 -0.00693182 0)
(7.9565 -0.00860924 0)
(7.87853 -0.0095467 0)
(7.80736 -0.0100279 0)
(7.74264 -0.0106386 0)
(0.00318259 -0.00588767 -8.33091e-19)
(0.0127506 -0.0138481 7.25513e-19)
(0.0249412 -0.0179335 0)
(0.0375719 -0.0183305 0)
(0.0484103 -0.0161516 0)
(0.0565916 -0.0126159 -4.19589e-19)
(0.0619146 -0.00860635 0)
(0.0644986 -0.00465163 0)
(0.0644338 -0.00109663 0)
(0.0621052 0.0018037 0)
(0.0580508 0.003971 3.95156e-19)
(0.0526574 0.00551415 0)
(0.0462266 0.00662822 0)
(0.0389543 0.00751574 0)
(0.0309266 0.00834621 0)
(0.0221478 0.00923226 4.58184e-19)
(0.0125651 0.010198 0)
(0.00209407 0.0111498 0)
(-0.0093797 0.01198 0)
(-0.0220182 0.0127637 0)
(-0.0359708 0.0136316 0)
(-0.0513692 0.014643 0)
(-0.0683457 0.0158221 0)
(-0.0870261 0.0171788 2.97622e-19)
(-0.107521 0.018709 -2.72006e-19)
(-0.129917 0.0203872 2.48777e-19)
(-0.154253 0.0221609 2.27823e-19)
(-0.18054 0.0239806 0)
(-0.208745 0.0257981 0)
(-0.238801 0.0275684 -1.77053e-19)
(-0.270609 0.029252 -1.63614e-19)
(-0.304047 0.0308141 0)
(-0.338972 0.0322248 0)
(-0.375228 0.0334606 -1.31499e-19)
(-0.412649 0.0345055 0)
(-0.451059 0.0353506 0)
(-0.49029 0.0359988 1.08775e-19)
(-0.530181 0.0364591 0)
(-0.57058 0.0367434 9.73532e-20)
(-0.611348 0.0368661 1.85001e-19)
(-0.652359 0.0368431 0)
(-0.693508 0.0366928 0)
(-0.734707 0.0364365 0)
(-0.775888 0.0361018 0)
(-0.816993 0.0357207 0)
(-0.857967 0.0353289 1.43325e-19)
(-0.898753 0.0349612 1.38297e-19)
(-0.93946 0.0346193 1.33664e-19)
(-0.980054 0.0342849 0)
(-1.02055 0.0339619 -1.25409e-19)
(-1.06094 0.0336454 0)
(-1.10124 0.0333359 1.18268e-19)
(-1.14145 0.0330316 1.15046e-19)
(-1.18156 0.0327318 0)
(-1.22158 0.032435 0)
(-1.2615 0.0321398 0)
(-1.30132 0.0318446 1.03993e-19)
(-1.34103 0.0315476 0)
(-1.38062 0.0312469 0)
(-1.42008 0.0309406 0)
(-1.45939 0.0306268 0)
(-1.49855 0.0303038 0)
(-1.53752 0.0299695 0)
(-1.5763 0.0296224 0)
(-1.61485 0.0292605 0)
(-1.65316 0.0288825 -8.63219e-20)
(-1.69118 0.0284867 0)
(-1.72891 0.0280721 0)
(-1.76629 0.0276373 8.18503e-20)
(-1.8033 0.0271815 8.04702e-20)
(-1.8399 0.0267037 0)
(-1.87606 0.0262032 -7.78517e-20)
(-1.91173 0.0256793 7.66063e-20)
(-1.94688 0.0251317 0)
(-1.98146 0.02456 -7.42264e-20)
(-2.01544 0.0239639 0)
(-2.04877 0.0233436 0)
(-2.0814 0.0226991 7.08906e-20)
(-2.11329 0.0220304 0)
(-2.1444 0.0213377 -6.87915e-20)
(-2.17468 0.0206215 0)
(-2.20409 0.0198819 6.67697e-20)
(-2.23258 0.0191193 6.57822e-20)
(-2.2601 0.0183341 6.48073e-20)
(-2.28661 0.0175265 1.27686e-19)
(-2.31206 0.0166971 -1.25775e-19)
(-2.33641 0.0158462 0)
(-2.35962 0.014974 0)
(-2.38163 0.0140801 0)
(-2.4024 0.0131632 -1.18228e-19)
(-2.42189 0.012221 -1.16348e-19)
(-2.44005 0.0112511 1.14464e-19)
(-2.45684 0.01025 0)
(-2.47219 0.00921281 -1.10671e-19)
(-2.48607 0.00813267 -1.08757e-19)
(-2.49839 0.00700124 -1.06828e-19)
(-2.5091 0.00580992 0)
(-2.5181 0.00455476 0)
(-2.52531 0.00324891 0)
(-2.53065 0.00194447 -9.89458e-20)
(-2.53397 0.000735545 0)
(-2.53525 -0.000305921 0)
(-2.53502 -0.00124167 9.26871e-20)
(-2.53316 -0.00215582 0)
(-2.52973 -0.00306001 0)
(-2.52472 -0.00396064 8.59787e-20)
(-2.51811 -0.00485787 0)
(-2.50989 -0.00575144 0)
(-2.50007 -0.00664032 -7.87597e-20)
(-2.48863 -0.00752345 -7.62265e-20)
(-2.47558 -0.00839961 0)
(-2.4609 -0.00926756 7.09529e-20)
(-2.44461 -0.0101261 0)
(-2.42672 -0.0109739 -6.53841e-20)
(-2.40722 -0.0118098 0)
(-2.38613 -0.0126324 -5.94973e-20)
(-2.36346 -0.0134404 -5.64277e-20)
(-2.33923 -0.0142323 0)
(-2.31347 -0.0150071 0)
(-2.28618 -0.0157637 0)
(-2.25739 -0.0165013 0)
(-2.22714 -0.0172185 0)
(-2.19545 -0.0179145 0)
(-2.16235 -0.0185877 0)
(-2.12788 -0.0192376 -2.84597e-20)
(-2.09207 -0.0198632 2.44924e-20)
(-2.05497 -0.0204642 0)
(-2.01661 -0.02104 0)
(-1.97703 -0.0215911 0)
(-1.93628 -0.0221178 0)
(-1.89439 -0.0226186 5.70166e-21)
(-1.85142 -0.0230963 0)
(-1.80739 -0.0235504 1.3451e-20)
(-1.76236 -0.0239772 -2.34603e-20)
(-1.71636 -0.0243786 0)
(-1.66945 -0.0247548 0)
(-1.62168 -0.0251074 0)
(-1.57308 -0.0254379 6.66623e-20)
(-1.52371 -0.0257454 7.83268e-20)
(-1.4736 -0.026032 0)
(-1.42279 -0.0262996 1.02813e-19)
(-1.37134 -0.0265501 1.15677e-19)
(-1.31928 -0.0267852 -1.28986e-19)
(-1.26665 -0.0270061 0)
(-1.21348 -0.0272145 0)
(-1.1598 -0.0274123 -1.71872e-19)
(-1.10566 -0.0276015 0)
(-1.05107 -0.0277839 0)
(-0.996072 -0.0279617 0)
(-0.940685 -0.0281369 0)
(-0.884931 -0.0283119 2.55461e-19)
(-0.828833 -0.028489 2.74438e-19)
(-0.772407 -0.0286704 0)
(-0.715669 -0.0288588 3.1518e-19)
(-0.658633 -0.0290565 0)
(-0.60131 -0.0292654 0)
(-0.543708 -0.029488 3.8463e-19)
(-0.485833 -0.0297263 0)
(-0.427692 -0.0299822 4.3785e-19)
(-0.369285 -0.0302578 0)
(-0.310617 -0.030553 0)
(-0.251687 -0.0308709 5.31313e-19)
(-0.192498 -0.0312263 0)
(-0.133059 -0.0316287 6.05427e-19)
(-0.0734014 -0.0320289 0)
(-0.0136207 -0.0322035 0)
(0.0460923 -0.0318034 0)
(0.105952 -0.0310643 -6.69753e-19)
(0.1661 -0.0303693 0)
(0.226514 -0.029742 6.38969e-19)
(0.287227 -0.0291672 0)
(0.348248 -0.0286258 0)
(0.409548 -0.0280933 0)
(0.471021 -0.0275335 0)
(0.532488 -0.0268857 0)
(0.593371 -0.0260367 0)
(0.653402 -0.0247191 0)
(0.707888 -0.0223151 -1.10831e-18)
(0.762764 -0.0174246 0)
(0.76649 -1.57829e-05 0)
(0.00599299 -0.0270141 2.00089e-18)
(0.0171437 -0.03933 -1.25379e-18)
(0.0248715 -0.0379257 0)
(0.0295795 -0.0319118 3.98286e-19)
(0.0318252 -0.0241279 0)
(0.0318662 -0.0158067 1.55379e-19)
(0.0299824 -0.00766916 -2.95789e-19)
(0.026384 -0.00014385 -2.87018e-19)
(0.0212588 0.0064936 0)
(0.0146372 0.0120887 -2.80762e-19)
(0.00649224 0.0166586 -1.40496e-19)
(-0.00316363 0.0203735 0)
(-0.0143185 0.0234859 0)
(-0.0269582 0.0262647 0)
(-0.0410835 0.0289411 0)
(-0.0567213 0.0316867 -1.20345e-19)
(-0.073933 0.0346024 0)
(-0.0927936 0.0377261 2.23299e-19)
(-0.113333 0.041069 0)
(-0.135561 0.0446535 0)
(-0.159522 0.0484928 -1.99255e-19)
(-0.18526 0.0525663 0)
(-0.212778 0.0568228 1.83676e-19)
(-0.242039 0.0611891 -8.81006e-20)
(-0.272968 0.0655815 8.42872e-20)
(-0.30545 0.0699209 -8.05313e-20)
(-0.339355 0.0741251 -7.68784e-20)
(-0.374541 0.0781063 0)
(-0.410848 0.0817889 0)
(-0.448108 0.0851125 6.68386e-20)
(-0.486152 0.0880334 -6.36699e-20)
(-0.524811 0.0905263 0)
(-0.563927 0.0925836 0)
(-0.603353 0.0942026 5.59949e-20)
(-0.642952 0.095387 0)
(-0.682613 0.0961626 0)
(-0.722244 0.0965645 -4.96731e-20)
(-0.761768 0.0966347 0)
(-0.80113 0.0964167 4.60658e-20)
(-0.840288 0.0959547 -8.93164e-20)
(-0.879212 0.0952904 0)
(-0.917889 0.0944628 0)
(-0.956315 0.0935081 -1.62413e-19)
(-0.994497 0.092462 -1.57834e-19)
(-1.03245 0.0913618 -1.53568e-19)
(-1.07018 0.0902464 7.4656e-20)
(-1.1077 0.0891507 -7.30623e-20)
(-1.145 0.0880857 -2.13646e-19)
(-1.18208 0.0870446 1.3903e-19)
(-1.21894 0.0860258 6.80947e-20)
(-1.25559 0.0850258 0)
(-1.29203 0.0840418 -6.5219e-20)
(-1.32826 0.0830705 6.3603e-20)
(-1.36429 0.0821086 0)
(-1.4001 0.0811521 0)
(-1.43571 0.0801971 0)
(-1.47109 0.0792395 -5.91694e-20)
(-1.50624 0.0782752 0)
(-1.54115 0.0772998 1.13921e-19)
(-1.57581 0.0763091 0)
(-1.61021 0.075299 1.10111e-19)
(-1.64432 0.0742657 0)
(-1.67812 0.0732054 -1.06573e-19)
(-1.7116 0.0721147 0)
(-1.74473 0.0709903 1.0327e-19)
(-1.7775 0.0698294 -5.07118e-20)
(-1.80986 0.0686292 0)
(-1.8418 0.0673877 -9.86801e-20)
(-1.87329 0.0661027 -4.87464e-20)
(-1.90429 0.0647727 -4.80387e-20)
(-1.93478 0.0633963 0)
(-1.96472 0.0619726 -4.64265e-20)
(-1.99409 0.0605006 -4.60081e-20)
(-2.02284 0.0589801 0)
(-2.05095 0.0574107 4.47176e-20)
(-2.07838 0.0557926 -8.79552e-20)
(-2.10509 0.0541261 0)
(-2.13105 0.0524119 -4.28516e-20)
(-2.15622 0.0506507 0)
(-2.18056 0.0488434 1.24733e-19)
(-2.20405 0.0469912 0)
(-2.22664 0.0450954 -1.21166e-19)
(-2.24829 0.0431573 -3.98527e-20)
(-2.26898 0.0411785 3.91064e-20)
(-2.28866 0.0391604 7.70477e-20)
(-2.3073 0.0371044 -7.5882e-20)
(-2.32486 0.0350125 0)
(-2.34131 0.0328865 0)
(-2.35662 0.0307283 0)
(-2.37074 0.0285391 2.13892e-19)
(-2.38365 0.0263194 7.01387e-20)
(-2.39532 0.0240695 -6.89087e-20)
(-2.40572 0.0217892 0)
(-2.41481 0.0194779 -6.63269e-20)
(-2.42258 0.0171342 6.51357e-20)
(-2.42901 0.0147561 6.38463e-20)
(-2.43409 0.0123406 0)
(-2.43784 0.00988325 0)
(-2.44029 0.00738587 0)
(-2.44152 0.00487736 5.85178e-20)
(-2.44163 0.00243308 0)
(-2.44067 0.000131949 -1.11475e-19)
(-2.43824 -0.00206058 -1.62801e-19)
(-2.43432 -0.00421346 1.05644e-19)
(-2.42887 -0.00633856 0)
(-2.42186 -0.00844234 4.99254e-20)
(-2.41328 -0.0105244 0)
(-2.40313 -0.012583 9.33682e-20)
(-2.3914 -0.0146154 -4.52448e-20)
(-2.37807 -0.0166189 -4.36278e-20)
(-2.36316 -0.0185903 0)
(-2.34665 -0.0205268 -1.20077e-19)
(-2.32856 -0.0224253 7.67481e-20)
(-2.30889 -0.024283 3.63821e-20)
(-2.28764 -0.0260974 0)
(-2.26482 -0.0278657 3.27551e-20)
(-2.24046 -0.0295852 9.32529e-20)
(-2.21457 -0.0312534 0)
(-2.18716 -0.0328678 5.47888e-20)
(-2.15826 -0.0344263 5.09108e-20)
(-2.12789 -0.0359272 4.6971e-20)
(-2.09609 -0.0373686 0)
(-2.06286 -0.0387487 0)
(-2.02826 -0.0400657 0)
(-1.99231 -0.0413185 -1.56922e-20)
(-1.95505 -0.0425056 -1.27844e-20)
(-1.91651 -0.0436267 0)
(-1.87674 -0.044681 -1.77257e-20)
(-1.83577 -0.045669 -1.33228e-20)
(-1.79365 -0.0465916 0)
(-1.75042 -0.0474513 -3.46417e-21)
(-1.70612 -0.0482515 3.87649e-22)
(-1.66079 -0.0489948 -5.72575e-21)
(-1.61447 -0.0496721 -8.50331e-21)
(-1.56721 -0.0502783 0)
(-1.51904 -0.0508247 0)
(-1.47003 -0.051316 0)
(-1.4202 -0.0517505 -2.94637e-20)
(-1.36959 -0.0521294 3.23385e-20)
(-1.31826 -0.0524553 7.64609e-20)
(-1.26625 -0.0527319 -4.41725e-20)
(-1.21358 -0.0529626 4.7115e-20)
(-1.16031 -0.0531507 5.41523e-20)
(-1.10646 -0.0532985 0)
(-1.05207 -0.0534092 0)
(-0.997169 -0.0534852 -6.73115e-20)
(-0.941788 -0.0535301 0)
(-0.885954 -0.0535462 0)
(-0.829691 -0.0535375 1.67697e-19)
(-0.773023 -0.053506 0)
(-0.71597 -0.0534557 9.3324e-20)
(-0.65855 -0.053389 -1.007e-19)
(-0.600779 -0.0533095 0)
(-0.54267 -0.0532194 1.09364e-19)
(-0.484233 -0.0531226 0)
(-0.425479 -0.0530206 0)
(-0.366412 -0.0529169 -1.27838e-19)
(-0.307036 -0.0528131 2.64737e-19)
(-0.247355 -0.0527117 -1.39012e-19)
(-0.187368 -0.0526151 0)
(-0.127077 -0.0525252 0)
(-0.0664794 -0.0524407 1.54125e-19)
(-0.00559631 -0.0523506 0)
(0.0555621 -0.0522359 1.62062e-19)
(0.117045 -0.052091 0)
(0.178926 -0.051875 0)
(0.241195 -0.0515113 0)
(0.303791 -0.0510674 1.7088e-19)
(0.366698 -0.0506504 0)
(0.429946 -0.0502702 -1.74265e-19)
(0.493535 -0.0499123 0)
(0.557443 -0.0495489 0)
(0.621616 -0.0491391 3.55907e-19)
(0.685927 -0.0486179 -3.58757e-19)
(0.750172 -0.0478701 0)
(0.813846 -0.0466855 0)
(0.876536 -0.0445521 0)
(0.93529 -0.0405361 1.11556e-18)
(0.993375 -0.0314821 0)
(1.02705 -0.00835065 -7.77859e-19)
(0.00474836 -0.0484038 -4.44209e-22)
(0.0101791 -0.0538303 1.28097e-18)
(0.0113636 -0.043666 0)
(0.00993336 -0.0314603 -5.56297e-19)
(0.00656635 -0.0192898 0)
(0.00157784 -0.00762672 0)
(-0.00480513 0.00329307 3.97076e-23)
(-0.012468 0.0133165 1.7562e-19)
(-0.0213902 0.0223726 1.67076e-19)
(-0.0316081 0.0304587 1.60817e-19)
(-0.04319 0.0376387 0)
(-0.0562111 0.0440531 0)
(-0.0707367 0.0499034 -1.46765e-19)
(-0.0868131 0.0554154 -2.85198e-19)
(-0.104468 0.0608018 2.77005e-19)
(-0.123717 0.0662344 0)
(-0.144565 0.0718295 2.60987e-19)
(-0.16701 0.0776504 -1.26689e-19)
(-0.191027 0.0837174 0)
(-0.216573 0.09001 2.37819e-19)
(-0.243575 0.0964749 1.15189e-19)
(-0.271937 0.103033 -2.22506e-19)
(-0.301537 0.109584 -1.07535e-19)
(-0.332238 0.116013 0)
(-0.363891 0.122203 1.9986e-19)
(-0.396342 0.128042 1.92611e-19)
(-0.429439 0.133436 0)
(-0.46303 0.138304 1.78765e-19)
(-0.496979 0.142586 0)
(-0.531161 0.14624 1.65949e-19)
(-0.565472 0.149245 8.00459e-20)
(-0.599825 0.151595 0)
(-0.634146 0.153308 0)
(-0.668367 0.15442 0)
(-0.702453 0.154985 0)
(-0.736391 0.155057 0)
(-0.770173 0.154696 0)
(-0.803797 0.153965 1.26007e-19)
(-0.837269 0.152926 -1.83422e-19)
(-0.870597 0.151639 0)
(-0.903793 0.150157 0)
(-0.936869 0.148532 0)
(-0.969838 0.146807 1.00003e-22)
(-1.00271 0.14502 1.06812e-19)
(-1.0355 0.143205 2.0837e-19)
(-1.06821 0.141393 -2.0351e-19)
(-1.10084 0.139601 -9.93946e-20)
(-1.13338 0.137839 9.73426e-20)
(-1.16582 0.136108 -1.3483e-22)
(-1.19817 0.134408 9.31713e-20)
(-1.23042 0.132734 0)
(-1.26256 0.131084 8.95031e-20)
(-1.29459 0.129451 -1.50971e-22)
(-1.32651 0.127831 0)
(-1.35832 0.126216 0)
(-1.38999 0.124601 -8.30733e-20)
(-1.42152 0.122979 0)
(-1.4529 0.121344 0)
(-1.48412 0.119688 7.87173e-20)
(-1.51516 0.118006 1.55159e-19)
(-1.54601 0.116292 -7.64855e-20)
(-1.57664 0.11454 0)
(-1.60704 0.112744 7.40871e-20)
(-1.63719 0.1109 0)
(-1.66706 0.109004 7.15023e-20)
(-1.69663 0.10705 7.07382e-20)
(-1.72587 0.105037 -1.3904e-19)
(-1.75477 0.102959 -6.83306e-20)
(-1.78328 0.100816 0)
(-1.81138 0.0986049 1.32975e-19)
(-1.83904 0.0963237 0)
(-1.86623 0.0939714 1.9384e-19)
(-1.89292 0.0915471 1.27256e-19)
(-1.91907 0.0890505 1.25411e-19)
(-1.94465 0.0864814 -1.23591e-19)
(-1.96963 0.0838404 1.82821e-19)
(-1.99398 0.0811281 0)
(-2.01764 0.0783456 0)
(-2.0406 0.0754943 -1.16505e-19)
(-2.06282 0.0725757 -1.72264e-19)
(-2.08425 0.0695919 0)
(-2.10487 0.0665448 5.57599e-20)
(-2.12463 0.063437 0)
(-2.1435 0.0602707 -1.61911e-19)
(-2.16144 0.0570487 -1.66943e-22)
(-2.17843 0.0537737 1.54022e-22)
(-2.19442 0.0504486 1.02713e-19)
(-2.20938 0.0470765 0)
(-2.22327 0.0436606 -9.92353e-20)
(-2.23607 0.0402037 -9.83515e-23)
(-2.24773 0.0367086 0)
(-2.25825 0.0331783 0)
(-2.26758 0.0296162 0)
(-2.2757 0.0260261 9.03504e-20)
(-2.28259 0.0224133 0)
(-2.28824 0.0187849 0)
(-2.29264 0.0151513 0)
(-2.29579 0.0115275 0)
(-2.29767 0.00793418 0)
(-2.29829 0.00439425 7.89663e-20)
(-2.29761 0.000914539 0)
(-2.29557 -0.00253283 7.47845e-20)
(-2.29208 -0.00596518 7.26903e-20)
(-2.28715 -0.00937332 -7.05692e-20)
(-2.28072 -0.0127528 0)
(-2.2728 -0.0161002 -6.62423e-20)
(-2.26336 -0.0194112 0)
(-2.25239 -0.0226815 -6.17986e-20)
(-2.23988 -0.0259063 5.95319e-20)
(-2.22584 -0.0290805 1.72202e-19)
(-2.21025 -0.0321994 0)
(-2.19313 -0.0352581 1.58222e-19)
(-2.17446 -0.0382517 5.07701e-20)
(-2.15426 -0.0411757 0)
(-2.13253 -0.0440257 9.12717e-20)
(-2.10929 -0.0467974 8.63517e-20)
(-2.08454 -0.0494868 -1.21685e-19)
(-2.05831 -0.0520897 0)
(-2.0306 -0.0546024 -3.52139e-20)
(-2.00145 -0.0570217 -3.26243e-20)
(-1.97088 -0.0593445 -9.09066e-20)
(-1.93891 -0.061568 0)
(-1.90557 -0.0636896 0)
(-1.87088 -0.0657067 0)
(-1.83489 -0.0676176 -2.03038e-20)
(-1.79763 -0.0694204 0)
(-1.75912 -0.0711143 0)
(-1.71942 -0.0726985 1.10715e-20)
(-1.67856 -0.0741737 8.29298e-21)
(-1.63657 -0.0755411 0)
(-1.5935 -0.0768043 0)
(-1.5494 -0.0779677 -2.38752e-22)
(-1.50429 -0.0790341 0)
(-1.45822 -0.0799968 1.15504e-20)
(-1.41123 -0.0808504 1.60352e-20)
(-1.36336 -0.081605 0)
(-1.31465 -0.0822671 0)
(-1.26514 -0.0828366 -3.30693e-20)
(-1.21488 -0.0833165 -1.23036e-21)
(-1.16391 -0.0837107 -1.23711e-21)
(-1.11225 -0.0840247 0)
(-1.05996 -0.0842634 -1.12818e-19)
(-1.00706 -0.0844322 0)
(-0.953584 -0.0845349 0)
(-0.89957 -0.0845763 0)
(-0.845044 -0.0845606 7.96151e-20)
(-0.790033 -0.0844928 0)
(-0.734562 -0.0843771 -1.79115e-19)
(-0.678655 -0.0842185 -9.63836e-20)
(-0.622331 -0.084021 0)
(-0.565611 -0.0837898 -1.07468e-19)
(-0.508509 -0.0835287 0)
(-0.451041 -0.0832426 0)
(-0.393218 -0.0829351 -3.69357e-19)
(-0.335049 -0.082611 2.56324e-19)
(-0.276543 -0.0822732 0)
(-0.217703 -0.0819257 2.78044e-19)
(-0.158533 -0.0815714 -1.45661e-19)
(-0.0990354 -0.0812129 0)
(-0.0392077 -0.080852 0)
(0.0209395 -0.0804862 0)
(0.081414 -0.0801138 -4.90052e-19)
(0.142229 -0.079737 0)
(0.203394 -0.0793548 -1.70106e-19)
(0.264928 -0.0789644 0)
(0.326861 -0.0785606 0)
(0.389222 -0.0781606 0)
(0.451995 -0.0777805 0)
(0.515159 -0.0774254 0)
(0.578707 -0.077094 0)
(0.642618 -0.076765 -3.76664e-19)
(0.706856 -0.0764005 0)
(0.771352 -0.0759414 -1.945e-19)
(0.835978 -0.0752921 5.88795e-19)
(0.900536 -0.0742866 0)
(0.964593 -0.0726207 0)
(1.02782 -0.0696638 -4.06904e-19)
(1.0882 -0.0642192 -4.14587e-19)
(1.14882 -0.0533296 4.20438e-19)
(1.19604 -0.0295473 4.34085e-19)
(0.00109558 -0.0578497 -3.05357e-18)
(2.1987e-05 -0.052927 -1.59353e-18)
(-0.00419697 -0.0372346 -6.10839e-19)
(-0.0102319 -0.0213544 -2.17846e-19)
(-0.0176165 -0.00631108 0)
(-0.0261193 0.00781364 3.07812e-19)
(-0.035655 0.0210111 -1.39388e-19)
(-0.0462202 0.0332714 0)
(-0.0578554 0.0446043 -1.23659e-19)
(-0.0706282 0.0550551 0)
(-0.0846199 0.0647136 2.29895e-19)
(-0.0999099 0.0737156 0)
(-0.116563 0.0822301 1.08571e-19)
(-0.134616 0.090436 2.11232e-19)
(-0.15408 0.0984963 -2.05427e-19)
(-0.174935 0.106536 0)
(-0.197137 0.11463 -1.93936e-19)
(-0.220618 0.122802 0)
(-0.245293 0.131031 0)
(-0.271056 0.139256 -1.76885e-19)
(-0.297784 0.14739 0)
(-0.325342 0.155328 6.49211e-23)
(-0.353587 0.162957 0)
(-0.382379 0.170166 0)
(-0.411585 0.176853 -3.8624e-23)
(-0.441081 0.182931 -1.4435e-19)
(-0.470758 0.188329 -1.39357e-19)
(-0.500521 0.193 -1.3458e-19)
(-0.530296 0.196917 0)
(-0.560024 0.200076 -2.51098e-19)
(-0.589665 0.20249 0)
(-0.619193 0.204189 -1.17304e-19)
(-0.648598 0.205215 0)
(-0.67789 0.20563 0)
(-0.707079 0.205506 1.06544e-19)
(-0.736178 0.204916 0)
(-0.765205 0.203925 -1.00365e-19)
(-0.794178 0.2026 7.41054e-24)
(-0.823115 0.201003 1.89743e-19)
(-0.852032 0.19919 -1.84724e-19)
(-0.880944 0.197213 0)
(-0.909862 0.195116 0)
(-0.938794 0.192941 -8.56141e-20)
(-0.967745 0.190719 0)
(-0.996719 0.188478 -8.17391e-20)
(-1.02571 0.186238 7.99298e-20)