/*--------------------------------*- C++ -*----------------------------------*\
| =========                 |                                                 |
| \\      /  F ield         | OpenFOAM: The Open Source CFD Toolbox           |
|  \\    /   O peration     | Version:  2212                                  |
|   \\  /    A nd           | Website:  www.openfoam.com                      |
|    \\/     M anipulation  |                                                 |
\*---------------------------------------------------------------------------*/
FoamFile
{
    version     2.0;
    format      ascii;
    arch        "LSB;label=32;scalar=64";
    class       volScalarField;
    location    "100";
    object      epsilon;
}
// * * * * * * * * * * * * * * * * * * * * * * * * * * * * * * * * * * * * * //

dimensions      [0 2 -3 0 0 0 0];

internalField   nonuniform List<scalar> 
12225
(
1085.6
2467.87
3645.42
4414.9
4812.3
4980.97
4975.89
4927.29
4841.78
4730.65
4622.45
4519.56
4428.14
4343.08
4272.82
4203.83
4156.29
4094.04
81.207
262.678
438.37
584.61
690.879
762.848
804.62
829.576
846.33
856.601
865.919
873.134
882.014
889.947
899.001
908.644
914.849
930.974
20.5547
51.215
83.4041
112.588
136.833
156.223
170.057
179.881
186.259
190.721
193.347
195.482
196.678
198.135
199.114
200.351
202.217
205.323
14.7501
21.8697
30.0047
38.5201
46.1921
53.0463
58.5966
63.2555
66.7266
69.6204
71.5769
73.2857
74.2707
75.2663
75.6679
76.2916
76.4803
77.1898
14.3591
16.3321
18.4501
21.4932
24.4318
27.2633
29.7293
31.9786
33.8101
35.4683
36.733
37.9088
38.7271
39.5471
40.0324
40.5942
40.9011
41.286
14.6442
14.9535
15.4256
16.4577
17.6064
18.8286
19.9674
21.0745
22.0303
22.9433
23.6842
24.4077
24.9478
25.5156
25.8801
26.3294
26.5594
26.9361
14.7183
14.6385
14.6734
14.8755
15.2169
15.683
16.1619
16.6712
17.1368
17.6086
18.0078
18.4171
18.7343
19.0823
19.3151
19.6134
19.767
20.0533
14.7545
14.5907
14.4691
14.4209
14.4417
14.5151
14.6473
14.8241
15.0016
15.2013
15.3781
15.5744
15.7307
15.9122
16.0372
16.2029
16.2911
16.4639
14.7641
14.5919
14.4345
14.3029
14.2031
14.1371
14.0972
14.0986
14.1106
14.1412
14.1779
14.2341
14.2786
14.3416
14.3842
14.4473
14.484
14.5535
14.7656
14.5942
14.432
14.2829
14.1466
14.0296
13.9257
13.8438
13.7745
13.7225
13.6772
13.6482
13.6203
13.6061
13.5889
13.5831
13.5723
13.5808
14.7657
14.5945
14.4323
14.2806
14.137
14.0052
13.8817
13.7707
13.6681
13.5779
13.4941
13.4221
13.354
13.2974
13.2408
13.1974
13.1474
13.1178
14.7657
14.5943
14.4323
14.2801
14.1358
14.0008
13.8729
13.7541
13.6419
13.5388
13.4412
13.3526
13.268
13.1926
13.1189
13.0553
12.9899
12.9372
14.7657
14.5941
14.4321
14.2797
14.1353
13.9995
13.8708
13.7498
13.6349
13.5273
13.425
13.3297
13.2387
13.1546
13.0735
12.9995
12.9271
12.862
14.7657
14.594
14.4319
14.2792
14.1349
13.9988
13.8699
13.7482
13.6328
13.5238
13.4203
13.3226
13.2297
13.1421
13.0585
12.9799
12.9047
12.8341
14.7657
14.5938
14.4317
14.2789
14.1345
13.9981
13.8692
13.7472
13.6317
13.5223
13.4185
13.3202
13.2267
13.1382
13.0539
12.974
12.8978
12.8256
14.7657
14.5938
14.4316
14.2786
14.1341
13.9976
13.8685
13.7464
13.6307
13.5212
13.4172
13.3187
13.2251
13.1362
13.0517
12.9715
12.895
12.8224
14.7657
14.5937
14.4315
14.2784
14.1338
13.9972
13.868
13.7458
13.63
13.5203
13.4162
13.3175
13.2238
13.1348
13.0502
12.9697
12.8932
12.8204
14.7657
14.5937
14.4314
14.2783
14.1336
13.9969
13.8677
13.7453
13.6294
13.5196
13.4155
13.3167
13.2228
13.1337
13.049
12.9685
12.8918
12.8189
14.7657
14.5937
14.4314
14.2782
14.1336
13.9968
13.8675
13.7451
13.6292
13.5193
13.4151
13.3162
13.2224
13.1332
13.0484
12.9678
12.8912
12.8182
14.7657
14.5937
14.4315
14.2783
14.1337
13.997
13.8677
13.7453
13.6294
13.5195
13.4153
13.3164
13.2226
13.1334
13.0487
12.9681
12.8915
12.8186
14.7657
14.5937
14.4316
14.2785
14.1339
13.9972
13.868
13.7457
13.6299
13.5201
13.4161
13.3175
13.2239
13.135
13.0508
12.9706
12.8946
12.8222
14.7657
14.5938
14.4317
14.2786
14.1343
13.9977
13.869
13.7472
13.6325
13.5239
13.4218
13.325
13.2342
13.1481
13.0674
12.9905
12.919
12.8502
14.7657
14.5937
14.4319
14.2789
14.1361
14.002
13.8782
13.7628
13.6572
13.5594
13.4706
13.3882
13.314
13.2445
13.1828
13.1236
13.0728
13.0212
14.7644
14.5922
14.4335
14.2871
14.1628
14.0551
13.9689
13.8978
13.8459
13.8049
13.7783
13.7582
13.7484
13.7419
13.7425
13.744
13.7518
13.7508
14.7478
14.5944
14.4764
14.4102
14.4235
14.4614
14.5555
14.6709
14.8173
14.9618
15.1244
15.2721
15.433
15.5696
15.7211
15.839
15.9798
16.0738
14.6504
14.7821
14.9369
15.3418
15.9229
16.5513
17.2346
17.8791
18.5393
19.1236
19.7152
20.2125
20.7235
21.1287
21.5631
21.8803
22.2502
22.4856
14.5719
16.1273
17.9726
20.4204
22.9246
25.2675
27.5497
29.5567
31.4962
33.1094
34.694
35.9234
37.1869
38.0779
39.0742
39.6865
40.4755
40.8672
16.544
25.88
36.7212
46.5575
55.8704
64.2818
72.1137
78.7579
84.8242
89.617
94.0454
97.2109
100.354
102.235
104.5
105.466
107.186
107.545
45.7965
105.215
164.45
217.257
267.882
313.505
353.737
386.197
413.34
433.786
450.75
462.873
473.079
479.98
487.036
490.548
496.4
497.757
632.343
1081.16
1534.75
1880.97
2183.45
2431.66
2631.41
2772.74
2875.85
2931.67
2968.56
2969.32
2962.24
2945.16
2917.14
2883.74
2847.85
2810.4
1.41925
1.99007
3.6585
5.3152
6.8091
8.10183
9.19018
10.0763
10.9361
11.7275
12.4843
13.266
14.1522
15.2111
16.535
18.2157
20.2946
22.7357
25.5479
28.745
32.3803
36.5007
41.2048
46.5216
52.4825
59.1044
66.4313
74.4492
83.1641
92.5355
102.551
113.145
124.296
135.928
148.014
160.478
173.296
186.396
199.766
213.342
227.121
241.047
255.128
269.315
283.621
298.007
312.494
327.052
341.701
356.411
371.203
386.051
400.971
415.941
430.974
446.049
461.176
476.337
491.537
506.76
522.005
537.262
552.521
567.777
583.009
598.218
613.361
628.451
643.446
658.372
673.185
687.922
702.53
717.063
731.458
745.784
759.969
774.101
788.107
802.088
815.958
829.836
843.63
857.474
871.251
885.111
898.937
912.883
926.858
940.976
955.195
969.478
983.82
998.19
1012.59
1026.97
1041.34
1055.62
1069.77
1083.66
1097.09
1109.76
1121.29
1131.11
1137.02
1135.11
1146.1
1171.53
1173.06
1196.91
1200.73
1208.19
1210.94
1208.21
1213.57
1226.1
1222.8
1225.39
1228.79
1234.69
1232.33
1228.19
1222.55
1214.77
1205.4
1194.31
1181.51
1167.03
1150.75
1132.68
1112.85
1091.36
1068.28
1043.74
1017.69
990.039
961.206
931.333
900.622
869.314
837.544
805.369
773.472
742.118
709.966
682.849
662.502
643.251
624.216
605.368
586.812
568.587
550.848
533.455
516.259
499.555
483.645
468.278
453.322
438.854
424.973
411.754
399.216
387.291
375.955
365.212
355.055
345.446
336.368
327.795
319.703
312.038
304.804
297.815
291.345
284.459
278.795
270.545
264.333
243.267
7.03572
4.42221
4.22948
4.50003
4.95857
5.49396
6.07806
6.71282
7.41827
8.19119
9.04492
10.0052
11.1065
12.3847
13.8742
15.6018
17.5813
19.8137
22.3008
25.0438
28.0481
31.3168
34.854
38.6531
42.706
47.0007
51.5273
56.2689
61.212
66.3185
71.5704
76.9474
82.436
88.0194
93.6886
99.4311
105.242
111.113
117.041
123.02
129.049
135.125
141.247
147.414
153.627
159.886
166.196
172.563
178.975
185.424
191.913
198.436
204.994
211.584
218.204
224.85
231.521
238.213
244.923
251.646
258.379
265.118
271.859
278.595
285.322
292.034
298.724
305.385
312.012
318.602
325.148
331.651
338.104
344.508
350.857
357.155
363.394
369.582
375.712
381.793
387.817
393.795
399.719
405.601
411.43
417.221
422.963
428.672
434.338
439.973
445.556
451.076
456.521
461.883
467.152
472.313
477.351
482.238
486.942
491.412
495.591
499.407
502.798
505.7
508.088
510.422
514.662
519.57
522.259
526.494
528.127
529.769
529.435
530.716
533.03
537.208
537.137
536.915
537.939
538.673
539.027
537.469
535.691
533.132
530.051
526.375
522.105
517.229
511.722
505.554
498.733
491.22
483.033
474.196
464.714
454.585
443.909
432.738
421.134
409.171
396.904
384.382
371.733
359.059
346.171
333.912
322.89
312.37
302.068
291.945
282.028
272.344
262.93
253.784
244.769
235.881
227.32
219.069
211.101
203.428
196.062
189.031
182.348
175.999
169.97
164.258
158.858
153.755
148.94
144.4
140.127
136.099
132.325
128.74
125.451
122.208
119.437
116.928
115.914
116.619
14.5734
7.52664
6.33351
6.17249
6.36102
6.73433
7.23216
7.83557
8.54833
9.38031
10.3475
11.47
12.7696
14.2659
15.9738
17.9009
20.048
22.4094
24.9772
27.7426
30.6981
33.8357
37.1476
40.6248
44.2586
48.0411
51.9682
55.9854
60.0586
64.2201
68.4736
72.8142
77.2355
81.7301
86.2928
90.9188
95.6067
100.356
105.162
110.021
114.931
119.89
124.897
129.952
135.052
140.199
145.391
150.628
155.906
161.224
166.58
171.973
177.402
182.864
188.358
193.883
199.434
205.011
210.61
216.227
221.861
227.506
233.158
238.814
244.469
250.117
255.752
261.371
266.966
272.534
278.069
283.566
289.021
294.428
299.783
305.082
310.32
315.494
320.599
325.634
330.593
335.475
340.276
344.996
349.63
354.178
358.637
363.005
367.282
371.465
375.55
379.529
383.395
387.145
390.772
394.272
397.633
400.846
403.897
406.771
409.453
411.935
414.225
416.352
418.406
420.579
423.101
425.514
427.437
429.386
430.688
431.828
432.645
433.821
435.1
436.428
436.864
436.954
437.008
436.968
436.548
435.477
434.105
432.267
430.012
427.305
424.128
420.459
416.277
411.559
406.298
400.481
394.117
387.216
379.792
371.864
363.48
354.682
345.514
336.028
326.265
316.271
306.11
295.855
285.557
275.518
265.975
256.761
247.761
238.947
230.334
221.941
213.792
205.892
198.207
190.734
183.527
176.526
169.747
163.221
156.937
150.922
145.186
139.723
134.528
129.599
124.931
120.515
116.344
112.409
108.703
105.214
101.941
98.8584
96.0079
93.2979
90.9201
88.6865
87.2265
87.262
22.7969
10.7485
8.70131
8.22655
8.26821
8.57515
9.06039
9.69342
10.4686
11.3924
12.4779
13.7405
15.1949
16.8515
18.7151
20.7834
23.0488
25.4993
28.1219
30.9035
33.8329
36.9004
40.0974
43.4156
46.8469
50.3809
54.0037
57.7283
61.5671
65.5027
69.5298
73.6467
77.8473
82.1207
86.4603
90.859
95.3065
99.8235
104.405
109.048
113.752
118.514
123.332
128.206
133.134
138.114
143.145
148.227
153.356
158.533
163.755
169.021
174.33
179.681
185.072
190.5
195.964
201.461
206.99
212.546
218.127
223.728
229.347
234.977
240.616
246.256
251.893
257.52
263.133
268.723
274.286
279.814
285.3
290.738
296.12
301.44
306.69
311.863
316.953
321.954
326.858
331.661
336.356
340.939
345.404
349.747
353.964
358.052
362.008
365.83
369.515
373.059
376.458
379.711
382.816
385.771
388.572
391.217
393.703
396.026
398.188
400.194
402.06
403.817
405.515
407.22
408.938
410.528
411.909
413.15
414.13
414.958
415.633
416.352
416.922
417.399
417.5
417.163
416.864
416.351
415.532
414.333
412.814
410.92
408.644
405.956
402.834
399.253
395.19
390.627
385.553
379.956
373.835
367.202
360.077
352.484
344.458
336.037
327.262
318.174
308.818
299.251
289.544
279.778
270.03
260.446
251.136
242.072
233.217
224.565
216.127
207.923
199.969
192.273
184.829
177.637
170.713
164.044
157.627
151.464
145.501
139.777
134.301
129.069
124.082
119.34
114.84
110.575
106.54
102.729
99.1356
95.7518
92.5739
89.5895
86.8167
84.2202
81.8933
79.7665
78.106
77.4828
31.1077
14.1415
11.2279
10.4607
10.3796
10.6404
11.1262
11.7902
12.618
13.6101
14.7745
16.1213
17.6595
19.3944
21.3259
23.4481
25.7509
28.2214
30.8459
33.612
36.5091
39.5288
42.6647
45.9116
49.2654
52.7223
56.2802
59.9406
63.7043
67.5668
71.5238
75.5696
79.7019
83.9205
88.2234
92.6089
97.0779
101.627
106.254
110.954
115.727
120.571
125.482
130.461
135.504
140.61
145.778
151.006
156.293
161.637
167.037
172.492
178.001
183.561
189.173
194.833
200.541
206.293
212.087
217.921
223.791
229.693
235.624
241.577
247.549
253.533
259.524
265.513
271.495
277.461
283.403
289.313
295.182
301
306.759
312.448
318.058
323.58
329.004
334.32
339.519
344.594
349.535
354.335
358.988
363.486
367.825
372
376.006
379.843
383.507
386.997
390.311
393.448
396.408
399.192
401.801
404.235
406.495
408.584
410.507
412.271
413.886
415.374
416.757
418.054
419.258
420.327
421.237
421.995
422.562
423.007
423.233
423.267
423.244
423.099
422.669
422.03
421.227
420.205
418.912
417.314
415.405
413.157
410.545
407.543
404.125
400.266
395.943
391.138
385.837
380.032
373.719
366.912
359.623
351.878
343.704
335.138
326.217
316.988
307.507
297.841
288.062
278.246
268.469
258.823
249.375
240.138
231.109
222.295
213.71
205.373
197.299
189.498
181.972
174.724
167.758
161.07
154.656
148.511
142.613
136.966
131.547
126.35
121.384
116.649
112.145
107.868
103.813
99.9773
96.3561
92.9439
89.7337
86.7211
83.9148
81.3024
78.9319
76.7906
75.0063
73.8978
38.9915
17.5037
13.7788
12.7414
12.5536
12.7747
13.2602
13.9468
14.8104
15.8449
17.0529
18.4397
20.0105
21.7676
23.7093
25.8296
28.1192
30.567
33.1616
35.8924
38.751
41.7308
44.8272
48.0372
51.3587
54.7906
58.3325
61.9843
65.7457
69.6153
73.591
77.6706
81.8526
86.1359
90.5193
95.0012
99.5806
104.255
109.022
113.88
118.825
123.856
128.971
134.167
139.442
144.794
150.223
155.725
161.3
166.946
172.662
178.447
184.299
190.217
196.2
202.245
208.353
214.519
220.743
227.02
233.348
239.723
246.141
252.595
259.081
265.592
272.121
278.66
285.2
291.733
298.247
304.734
311.182
317.579
323.913
330.172
336.344
342.416
348.376
354.211
359.909
365.459
370.851
376.073
381.117
385.974
390.637
395.1
399.357
403.407
407.246
410.874
414.287
417.488
420.476
423.254
425.824
428.189
430.351
432.315
434.087
435.672
437.081
438.323
439.412
440.356
441.156
441.786
442.262
442.584
442.665
442.505
442.203
441.765
441.182
440.432
439.468
438.298
436.925
435.324
433.466
431.326
428.885
426.12
423.005
419.514
415.62
411.3
406.528
401.287
395.562
389.343
382.628
375.424
367.743
359.607
351.043
342.087
332.783
323.187
313.36
303.37
293.289
283.187
273.134
263.199
253.434
243.866
234.51
225.382
216.499
207.881
199.542
191.493
183.741
176.288
169.136
162.282
155.722
149.449
143.45
137.72
132.243
127.01
121.993
117.195
112.617
108.259
104.119
100.197
96.4889
92.9923
89.7001
86.6126
83.7322
81.056
78.6107
76.4043
74.5099
73.0492
46.2583
20.7186
16.2564
14.9707
14.6854
14.8679
15.3483
16.047
16.9305
17.9862
19.2116
20.6082
22.1785
23.9235
25.8416
27.9281
30.1763
32.5778
35.1241
37.8074
40.6214
43.5612
46.6238
49.8071
53.1103
56.5333
60.0762
63.7392
67.5227
71.4262
75.4493
79.591
83.8509
88.2278
92.7211
97.3294
102.051
106.885
111.829
116.88
122.036
127.295
132.655
138.113
143.668
149.317
155.058
160.89
166.811
172.82
178.915
185.096
191.361
197.709
204.139
210.649
217.238
223.905
230.646
237.458
244.34
251.286
258.292
265.352
272.461
279.61
286.793
293.999
301.219
308.442
315.657
322.851
330.01
337.121
344.169
351.139
358.016
364.783
371.426
377.929
384.276
390.454
396.448
402.245
407.833
413.202
418.341
423.243
427.901
432.311
436.47
440.375
444.024
447.419
450.56
453.448
456.088
458.482
460.634
462.549
464.233
465.691
466.932
467.961
468.786
469.409
469.852
470.051
470.011
469.814
469.381
468.746
467.917
466.904
465.706
464.313
462.708
460.884
458.836
456.549
454.005
451.184
448.069
444.638
440.868
436.735
432.214
427.281
421.913
416.09
409.797
403.024
395.768
388.03
379.824
371.168
362.093
352.64
342.858
332.805
322.543
312.139
301.662
291.177
280.749
270.437
260.289
250.337
240.603
231.11
221.877
212.925
204.268
195.918
187.883
180.166
172.768
165.686
158.915
152.447
146.274
140.386
134.77
129.415
124.303
119.417
114.736
110.265
106.009
101.971
98.1484
94.5408
91.1439
87.9556
84.9775
82.2105
79.6707
77.3711
75.3606
73.6315
53.3319
23.8279
18.6259
17.0857
16.6979
16.8363
17.3043
18.0056
18.8971
19.9597
21.1862
22.5752
24.1272
25.8424
27.7202
29.7577
31.9509
34.2943
36.7825
39.4103
42.1735
45.0687
48.094
51.2485
54.5319
57.9447
61.4875
65.1614
68.967
72.9049
76.9756
81.1793
85.516
89.9855
94.5873
99.3208
104.185
109.178
114.299
119.546
124.917
130.409
136.021
141.75
147.594
153.552
159.622
165.801
172.088
178.483
184.984
191.59
198.3
205.113
212.029
219.045
226.161
233.376
240.686
248.09
255.583
263.163
270.824
278.56
286.364
294.23
302.146
310.105
318.093
326.1
334.11
342.11
350.084
358.016
365.887
373.68
381.376
388.957
396.404
403.697
410.818
417.748
424.471
430.971
437.231
443.238
448.98
454.446
459.628
464.519
469.115
473.412
477.407
481.099
484.491
487.583
490.377
492.878
495.089
497.015
498.662
500.037
501.146
501.995
502.586
502.875
502.898
502.679
502.223
501.527
500.578
499.387
497.961
496.306
494.423
492.309
489.958
487.364
484.522
481.423
478.057
474.411
470.47
466.218
461.637
456.705
451.402
445.706
439.596
433.054
426.063
418.613
410.7
402.325
393.502
384.253
374.612
364.62
354.327
343.788
333.064
322.22
311.32
300.426
289.6
278.896
268.358
258.02
247.91
238.052
228.469
219.179
210.2
201.542
193.215
185.222
177.562
170.234
163.23
156.546
150.17
144.094
138.306
132.792
127.54
122.533
117.742
113.148
108.764
104.597
100.649
96.9197
93.4064
90.107
87.0218
84.1529
81.51
79.1048
76.9728
75.0323
62.0569
27.0992
20.9214
19.0577
18.5404
18.6204
19.066
19.7616
20.6531
21.7147
22.9349
24.309
25.836
27.5159
29.3484
31.3327
33.4668
35.7481
38.1738
40.7409
43.4473
46.2911
49.2716
52.3886
55.6427
59.0349
62.5665
66.239
70.0539
74.0127
78.1166
82.3667
86.7638
91.3084
96.0008
100.841
105.829
110.963
116.244
121.669
127.237
132.947
138.797
144.784
150.908
157.167
163.558
170.081
176.734
183.517
190.428
197.466
204.632
211.924
219.342
226.885
234.552
242.341
250.251
258.28
266.424
274.678
283.039
291.5
300.054
308.691
317.403
326.178
335.003
343.864
352.746
361.631
370.503
379.341
388.124
396.833
405.445
413.938
422.288
430.474
438.472
446.262
453.821
461.13
468.169
474.923
481.374
487.509
493.318
498.792
503.923
508.706
513.138
517.215
520.94
524.311
527.332
530.005
532.334
534.324
535.981
537.312
538.326
539.011
539.338
539.317
539.014
538.41
537.507
536.307
534.806
533.013
530.931
528.568
525.925
523.005
519.805
516.327
512.566
508.522
504.189
499.564
494.636
489.399
483.837
477.938
471.687
465.068
458.062
450.655
442.832
434.586
425.912
416.817
407.314
397.429
387.194
376.65
365.842
354.822
343.647
332.376
321.069
309.786
298.585
287.517
276.623
265.937
255.489
245.304
235.405
225.81
216.536
207.597
199
190.749
182.844
175.28
168.054
161.156
154.58
148.315
142.348
136.668
131.261
126.112
121.199
116.479
111.966
107.671
103.598
99.7475
96.1172
92.7056
89.5121
86.5385
83.7903
81.2763
79.022
76.9066
70.352
30.1318
22.9995
20.8087
20.1553
20.1708
20.5883
21.2732
22.1609
23.2189
24.4312
25.7903
27.2934
28.9398
30.7298
32.6636
34.7409
36.9613
39.3241
41.8283
44.4734
47.2593
50.1863
53.2553
56.4676
59.8249
63.3295
66.9834
70.7892
74.7491
78.8651
83.1392
87.573
92.1678
96.9247
101.845
106.928
112.176
117.588
123.164
128.903
134.805
140.868
147.092
153.474
160.014
166.711
173.563
180.57
187.731
195.046
202.514
210.135
217.908
225.835
233.913
242.143
250.524
259.053
267.729
276.549
285.509
294.603
303.825
313.167
322.621
332.175
341.816
351.531
361.304
371.118
380.952
390.787
400.601
410.369
420.068
429.672
439.156
448.491
457.652
466.613
475.346
483.827
492.032
499.937
507.522
514.767
521.656
528.174
534.31
540.053
545.398
550.337
554.869
558.991
562.703
566.008
568.906
571.402
573.499
575.204
576.525
577.467
577.978
578.087
577.827
577.2
576.208
574.853
573.134
571.054
568.617
565.829
562.694
559.218
555.405
551.259
546.782
541.978
536.851
531.403
525.638
519.557
513.158
506.437
499.393
492.017
484.301
476.236
467.813
459.023
449.864
440.336
430.448
420.216
409.664
398.822
387.729
376.422
364.946
353.354
341.698
330.033
318.411
306.892
295.521
284.336
273.371
262.652
252.206
242.053
232.212
222.699
213.529
204.711
196.246
188.133
180.369
172.949
165.866
159.111
152.674
146.543
140.706
135.15
129.861
124.817
119.976
115.341
110.927
106.737
102.774
99.034
95.5165
92.2199
89.1452
86.2951
83.6748
81.3024
79.0392
77.5716
32.7515
24.7724
22.2846
21.5016
21.4576
21.8433
22.5157
23.399
24.4543
25.6611
27.0093
28.494
30.1137
31.8684
33.759
35.7862
37.9509
40.254
42.6963
45.2789
48.0028
50.8697
53.8815
57.0407
60.3498
63.8122
67.4308
71.2092
75.1506
79.2581
83.5344
87.9818
92.6016
97.3961
102.367
107.517
112.847
118.361
124.058
129.94
136.006
142.257
148.692
155.31
162.111
169.095
176.261
183.609
191.138
198.849
206.741
214.815
223.072
231.511
240.132
248.935
257.92
267.085
276.428
285.946
295.635
305.49
315.504
325.669
335.974
346.408
356.958
367.606
378.336
389.129
399.962
410.812
421.654
432.462
443.207
453.861
464.392
474.772
484.968
494.951
504.688
514.152
523.313
532.143
540.619
548.716
556.415
563.697
570.548
576.956
582.911
588.406
593.435
597.997
602.09
605.715
608.873
611.567
613.799
615.577
616.906
617.776
618.162
618.093
617.584
616.636
615.252
613.432
611.176
608.487
605.367
601.821
597.854
593.473
588.683
583.491
577.905
571.935
565.587
558.876
551.811
544.405
536.666
528.604
520.228
511.543
502.553
493.262
483.67
473.781
463.598
453.128
442.38
431.371
420.126
408.672
397.046
385.271
373.384
361.43
349.453
337.5
325.616
313.862
302.277
290.895
279.742
268.845
258.227
247.907
237.903
228.228
218.901
209.929
201.313
193.052
185.141
177.576
170.35
163.454
156.88
150.615
144.646
138.962
133.547
128.383
123.426
118.684
114.166
109.877
105.816
101.981
98.3694
94.9806
91.8139
88.8697
86.1507
83.6686
81.2807
83.461
34.8777
26.1935
23.4521
22.5534
22.4566
22.8167
23.4792
24.3604
25.4161
26.6224
27.966
29.4404
31.0427
32.7724
34.6302
36.6173
38.7355
40.9866
43.3726
45.8958
48.5586
51.3639
54.3147
57.4148
60.6679
64.0784
67.6507
71.3896
75.2997
79.3852
83.6501
88.0988
92.727
97.5387
102.537
107.724
113.111
118.701
124.497
130.499
136.71
143.13
149.76
156.599
163.65
170.911
178.383
186.067
193.962
202.07
210.391
218.925
227.673
236.636
245.815
255.208
264.817
274.638
284.672
294.914
305.36
316.005
326.842
337.861
349.052
360.4
371.892
383.51
395.233
407.041
418.908
430.809
442.715
454.597
466.423
478.16
489.774
501.23
512.493
523.527
534.299
544.773
554.917
564.699
574.09
583.063
591.593
599.659
607.245
614.334
620.914
626.978
632.517
637.529
642.013
645.966
649.39
652.287
654.659
656.509
657.842
658.648
658.921
658.669
657.897
656.613
654.818
652.509
649.687
646.349
642.5
638.142
633.279
627.918
622.066
615.732
608.927
601.666
593.964
585.841
577.318
568.417
559.161
549.574
539.681
529.504
519.066
508.387
497.479
486.361
475.049
463.55
451.878
440.052
428.093
416.028
403.883
391.674
379.433
367.194
354.99
342.852
330.813
318.934
307.249
295.784
284.561
273.6
262.921
252.542
242.476
232.734
223.342
214.303
205.619
197.284
189.295
181.648
174.336
167.353
160.688
154.331
148.268
142.488
136.975
131.708
126.657
121.831
117.234
112.867
108.729
104.818
101.131
97.6658
94.4208
91.395
88.5889
86.0092
83.5183
87.8658
36.4681
27.2445
24.3036
23.3115
23.172
23.5128
24.1695
25.0526
26.1137
27.3257
28.6729
30.1469
31.7434
33.461
35.2997
37.2607
39.3461
41.5582
43.8999
46.3743
48.9849
51.7358
54.6313
57.6764
60.8762
64.2365
67.7631
71.4632
75.3429
79.406
83.6565
88.0991
92.7253
97.5462
102.566
107.786
113.225
118.886
124.773
130.891
137.244
143.833
150.659
157.725
165.032
172.58
180.372
188.407
196.688
205.213
213.985
223.005
232.274
241.792
251.559
261.577
271.844
282.359
293.12
304.124
315.366
326.839
338.535
350.444
362.555
374.851
387.317
399.932
412.675
425.521
438.444
451.413
464.398
477.365
490.279
503.103
515.8
528.329
540.653
552.732
564.526
575.997
587.108
597.823
608.109
617.935
627.273
636.099
644.391
652.133
659.311
665.913
671.932
677.363
682.205
686.456
690.116
693.185
695.666
697.56
698.871
699.596
699.722
699.25
698.173
696.512
694.263
691.419
687.977
683.935
679.294
674.052
668.216
661.789
654.781
647.199
639.062
630.384
621.19
611.506
601.366
590.804
579.858
568.569
556.986
545.146
533.095
520.88
508.517
496.051
483.434
470.746
458.028
445.306
432.599
419.938
407.356
394.827
382.346
369.938
357.624
345.42
333.339
321.484
309.856
298.465
287.325
276.452
265.861
255.563
245.568
235.881
226.532
217.531
208.873
200.555
192.571
184.918
177.59
170.582
163.886
157.49
151.38
145.545
139.969
134.63
129.522
124.645
120
115.584
111.397
107.434
103.693
100.17
96.865
93.7738
90.8959
88.234
85.6615
90.7417
37.5141
27.9274
24.8482
23.79
23.6211
23.9511
24.6084
25.4995
26.573
27.7994
29.1609
30.6474
32.2532
33.9756
35.814
37.7691
39.8428
42.0376
44.3566
46.8038
49.3835
52.1009
54.9616
57.9718
61.1391
64.4694
67.9689
71.6447
75.5042
79.5523
83.7931
88.2294
92.8681
97.7164
102.781
108.07
113.592
119.356
125.369
131.638
138.165
144.956
152.014
159.343
166.946
174.827
182.985
191.423
200.14
209.14
218.422
227.987
237.836
247.971
258.391
269.096
280.084
291.354
302.903
314.726
326.818
339.171
351.775
364.618
377.687
390.964
404.43
418.064
431.84
445.732
459.708
473.738
487.786
501.815
515.786
529.661
543.396
556.949
570.278
583.338
596.088
608.485
620.489
632.059
643.16
653.756
663.818
673.317
682.231
690.539
698.227
705.28
711.693
717.459
722.576
727.042
730.856
734.02
736.533
738.399
739.617
740.188
740.099
739.323
737.87
735.757
732.975
729.515
725.37
720.536
715.008
708.787
701.873
694.272
685.991
677.041
667.44
657.211
646.381
634.989
623.079
610.7
597.903
584.749
571.321
557.666
543.834
529.81
515.75
501.696
487.826
474.108
460.506
447.042
433.73
420.596
407.69
394.884
382.233
369.75
357.44
345.303
333.315
321.594
310.119
298.894
287.93
277.237
266.825
256.704
246.875
237.331
228.153
219.314
210.802
202.61
194.732
187.168
179.903
172.945
166.285
159.911
153.809
147.967
142.37
137.014
131.896
127.009
122.353
117.923
113.717
109.731
105.962
102.406
99.0614
95.9244
92.9931
90.2671
87.6348
91.981
38.0012
28.2536
25.1088
24.0183
23.8362
24.1674
24.8358
25.7456
26.8436
28.0984
29.491
31.0095
32.6471
34.3999
36.2664
38.2469
40.3427
42.5561
44.8904
47.35
49.9397
52.6658
55.5355
58.5543
61.7287
65.0661
68.5746
72.2626
76.1383
80.2094
84.4835
88.9686
93.6736
98.6078
103.781
109.202
114.88
120.826
127.047
133.551
140.344
147.433
154.821
162.515
170.515
178.828
187.457
196.403
205.667
215.25
225.152
235.373
245.915
256.776
267.956
279.453
291.264
303.387
315.816
328.545
341.566
354.868
368.441
382.269
396.335
410.62
425.103
439.757
454.556
469.469
484.463
499.503
514.55
529.565
544.506
559.331
573.994
588.45
602.654
616.559
630.12
643.293
656.033
668.299
680.051
691.254
701.874
711.881
721.251
729.962
737.996
745.341
751.989
757.934
763.173
767.705
771.53
774.646
777.055
778.759
779.757
780.041
779.616
778.4
776.45
773.761
770.32
766.117
761.139
755.381
748.835
741.499
733.371
724.456
714.76
704.298
693.087
681.158
668.542
655.288
641.46
627.118
612.328
597.118
581.543
565.779
549.956
534.323
518.806
503.446
488.409
473.527
458.925
444.637
430.68
417.061
403.779
390.798
378.108
365.698
353.553
341.66
330.009
318.62
307.493
296.627
286.026
275.694
265.635
255.855
246.351
237.107
228.189
219.586
211.291
203.296
195.595
188.191
181.071
174.248
167.704
161.425
155.396
149.606
144.058
138.749
133.673
128.825
124.199
119.793
115.604
111.627
107.859
104.297
100.937
97.7768
94.8133
92.0434
89.3738
91.9222
37.986
28.2465
25.1075
24.0269
23.8634
24.224
24.9246
25.8752
27.0226
28.3344
29.7901
31.3771
33.0873
34.916
36.8611
38.9224
41.1008
43.3982
45.8175
48.3628
51.0392
53.852
56.8076
59.9138
63.1788
66.6115
70.2218
74.0199
78.016
82.2209
86.6455
91.3011
96.1993
101.352
106.771
112.468
118.454
124.739
131.334
138.247
145.486
153.059
160.971
169.227
177.831
186.785
196.091
205.754
215.774
226.149
236.88
247.965
259.402
271.188
283.321
295.796
308.607
321.748
335.21
348.984
363.057
377.417
392.046
406.927
422.039
437.358
452.861
468.517
484.296
500.166
516.09
532.03
547.946
563.796
579.538
595.126
610.514
625.655
640.503
655.011
669.133
682.821
696.033
708.724
720.857
732.392
743.296
753.538
763.093
771.938
780.054
787.43
794.056
799.927
805.042
809.399
812.998
815.837
817.918
819.242
819.805
819.606
818.594
816.745
814.09
810.616
806.307
801.148
795.127
788.232
780.455
771.79
762.234
751.79
740.466
728.277
715.244
701.41
686.809
671.488
655.432
638.753
621.601
604.198
586.702
569.134
551.709
534.26
517.022
500.101
483.599
467.545
451.987
436.955
422.458
408.488
395.027
382.039
369.486
357.335
345.548
334.093
322.943
312.084
301.504
291.194
281.147
271.36
261.833
252.564
243.551
234.792
226.305
218.095
210.158
202.49
195.085
187.948
181.051
174.426
168.052
161.919
156.023
150.354
144.93
139.738
134.767
130.011
125.463
121.124
116.99
113.057
109.322
105.781
102.433
99.2731
96.3002
93.5079
90.8238
90.5198
37.55
27.9832
24.9211
23.9008
23.803
24.237
25.0171
26.0594
27.3102
28.7378
30.3218
32.049
33.9111
35.9027
38.0209
40.2644
42.6338
45.131
47.759
50.5219
53.425
56.4743
59.6769
63.0415
66.5775
70.2955
74.2069
78.3239
82.6592
87.226
92.0381
97.1097
102.455
108.089
114.025
120.278
126.86
133.784
141.058
148.693
156.698
165.079
173.845
182.998
192.54
202.47
212.789
223.493
234.582
246.054
257.905
270.132
282.729
295.689
309.004
322.664
336.659
350.977
365.603
380.523
395.719
411.171
426.859
442.758
458.844
475.09
491.466
507.942
524.486
541.061
557.631
574.159
590.603
606.923
623.077
639.02
654.708
670.096
685.139
699.792
714.009
727.748
740.964
753.618
765.67
777.083
787.826
797.869
807.184
815.751
823.55
830.568
836.797
842.232
846.873
850.718
853.768
856.015
857.468
858.125
857.978
857.004
855.135
852.397
848.78
844.266
838.837
832.476
825.168
816.896
807.652
797.427
786.217
774.022
760.86
746.742
731.685
715.646
698.72
681.009
662.741
644.003
624.857
605.541
585.916
566.246
546.708
527.406
508.495
490.102
472.334
455.254
438.911
423.324
408.493
394.396
380.992
368.228
356.046
344.383
333.18
322.382
311.941
301.822
291.994
282.438
273.136
264.079
255.259
246.67
238.305
230.163
222.25
214.572
207.126
199.907
192.915
186.154
179.603
173.279
167.181
161.302
155.639
150.182
144.945
139.919
135.099
130.479
126.054
121.828
117.793
113.945
110.28
106.793
103.487
100.356
97.3995
94.6093
91.9357
87.8529
36.6302
27.4441
24.5733
23.7019
23.7502
24.3304
25.2629
26.4726
27.9102
29.5451
31.358
33.3362
35.4714
37.7587
40.1951
42.7797
45.5128
48.3965
51.434
54.6297
57.989
61.5184
65.2258
69.1204
73.2129
77.5151
82.0398
86.8007
91.8124
97.09
102.649
108.506
114.678
121.18
128.03
135.244
142.835
150.813
159.186
167.962
177.146
186.744
196.753
207.177
218.016
229.267
240.927
252.988
265.445
278.29
291.514
305.106
319.055
333.347
347.969
362.903
378.133
393.638
409.398
425.39
441.591
457.975
474.516
491.185
507.953
524.792
541.67
558.556
575.419
592.225
608.939
625.526
641.951
658.177
674.165
689.877
705.273
720.314
734.958
749.165
762.896
776.111
788.77
800.835
812.272
823.047