/*--------------------------------*- C++ -*----------------------------------*\
| =========                 |                                                 |
| \\      /  F ield         | OpenFOAM: The Open Source CFD Toolbox           |
|  \\    /   O peration     | Version:  2212                                  |
|   \\  /    A nd           | Website:  www.openfoam.com                      |
|    \\/     M anipulation  |                                                 |
\*---------------------------------------------------------------------------*/
FoamFile
{
    version     2.0;
    format      ascii;
    arch        "LSB;label=32;scalar=64";
    class       volScalarField;
    location    "100";
    object      k;
}
// * * * * * * * * * * * * * * * * * * * * * * * * * * * * * * * * * * * * * //

dimensions      [0 2 -2 0 0 0 0];

internalField   nonuniform List<scalar> 
12225
(
0.571465
0.98767
1.28116
1.45561
1.54171
1.57753
1.5758
1.56742
1.54737
1.52406
1.50086
1.47854
1.45855
1.43981
1.42425
1.40888
1.39828
1.38422
0.438464
0.496983
0.521822
0.535034
0.542695
0.547522
0.550013
0.552289
0.555746
0.559437
0.565237
0.570995
0.579127
0.586577
0.596171
0.604676
0.614406
0.623897
0.387563
0.417493
0.42419
0.421532
0.41498
0.405045
0.393744
0.382872
0.371887
0.362464
0.353217
0.346113
0.338966
0.334298
0.329091
0.326602
0.322968
0.322129
0.376178
0.384809
0.388127
0.387418
0.385424
0.381163
0.375661
0.369585
0.363103
0.356586
0.350105
0.34383
0.337826
0.332098
0.32679
0.321723
0.317182
0.312771
0.374177
0.37537
0.376398
0.375932
0.374797
0.37252
0.36961
0.366148
0.362483
0.358485
0.354561
0.350392
0.346533
0.342416
0.338815
0.334868
0.331642
0.327919
0.373737
0.372542
0.371997
0.371084
0.369916
0.368273
0.36634
0.364039
0.361644
0.358977
0.35638
0.353551
0.350928
0.348069
0.345541
0.342733
0.34038
0.337673
0.373769
0.371725
0.37023
0.368833
0.367464
0.365944
0.364347
0.362557
0.360738
0.358757
0.35682
0.354742
0.352781
0.350682
0.348766
0.346696
0.344879
0.342865
0.373818
0.371563
0.36962
0.367861
0.366251
0.364666
0.363124
0.361526
0.359949
0.358304
0.356702
0.355035
0.35344
0.351783
0.350229
0.348608
0.347126
0.345551
0.373832
0.371554
0.369457
0.367511
0.365723
0.364027
0.36243
0.360865
0.359359
0.357857
0.356408
0.354952
0.353551
0.352142
0.350799
0.349442
0.348168
0.346865
0.373832
0.37156
0.369425
0.36741
0.36553
0.363754
0.362089
0.360496
0.358985
0.357521
0.356122
0.354756
0.353447
0.352161
0.350932
0.34972
0.348567
0.347423
0.37383
0.371561
0.369417
0.367385
0.365469
0.363654
0.361944
0.36032
0.358783
0.357314
0.355918
0.354577
0.353297
0.352063
0.350883
0.349741
0.348648
0.347589
0.373828
0.371559
0.369412
0.367376
0.365449
0.363621
0.361891
0.36025
0.358694
0.357214
0.355808
0.354466
0.353189
0.351966
0.350799
0.349681
0.34861
0.347583
0.373827
0.371557
0.369407
0.367369
0.365437
0.363604
0.361866
0.360216
0.358649
0.35716
0.355744
0.354396
0.353114
0.351891
0.350724
0.349611
0.348547
0.347531
0.373827
0.371555
0.369403
0.367363
0.365428
0.363592
0.36185
0.360194
0.358622
0.357126
0.355704
0.35435
0.353062
0.351834
0.350664
0.349548
0.348482
0.347467
0.373826
0.371553
0.369399
0.367357
0.36542
0.363582
0.361836
0.360178
0.358602
0.357102
0.355676
0.354318
0.353025
0.351793
0.350619
0.349499
0.34843
0.347411
0.373826
0.371552
0.369396
0.367352
0.365413
0.363573
0.361825
0.360164
0.358585
0.357083
0.355654
0.354293
0.352997
0.351762
0.350584
0.349461
0.348389
0.347367
0.373825
0.371551
0.369394
0.367349
0.365408
0.363566
0.361816
0.360153
0.358572
0.357068
0.355636
0.354273
0.352974
0.351736
0.350556
0.349431
0.348357
0.347332
0.373825
0.371551
0.369393
0.367347
0.365405
0.363561
0.36181
0.360145
0.358563
0.357056
0.355623
0.354258
0.352957
0.351718
0.350536
0.349409
0.348333
0.347307
0.373825
0.371551
0.369393
0.367346
0.365404
0.36356
0.361808
0.360142
0.358559
0.357051
0.355617
0.354251
0.352949
0.351708
0.350526
0.349397
0.348321
0.347294
0.373826
0.371551
0.369394
0.367348
0.365406
0.363562
0.36181
0.360145
0.358562
0.357054
0.35562
0.354254
0.352953
0.351712
0.35053
0.349401
0.348326
0.347298
0.373826
0.371552
0.369396
0.367351
0.365409
0.363567
0.361816
0.360152
0.358569
0.357064
0.35563
0.354266
0.352966
0.351727
0.350546
0.34942
0.348345
0.347319
0.373826
0.371553
0.369398
0.367355
0.365415
0.363575
0.361827
0.360167
0.35859
0.35709
0.355662
0.354303
0.353009
0.351775
0.350599
0.349475
0.348404
0.347379
0.373826
0.371555
0.369401
0.367363
0.365431
0.363605
0.361874
0.360236
0.35868
0.357201
0.355792
0.354448
0.353164
0.351935
0.350758
0.34963
0.348548
0.347508
0.373827
0.371555
0.369413
0.367418
0.365544
0.363793
0.362137
0.360571
0.359069
0.35763
0.356238
0.354893
0.353585
0.352319
0.351086
0.34989
0.348724
0.347596
0.373819
0.371564
0.369582
0.367845
0.366223
0.364711
0.363218
0.361752
0.360265
0.358785
0.357286
0.355797
0.354303
0.35283
0.351357
0.34992
0.34849
0.347105
0.373767
0.371946
0.370917
0.369978
0.368912
0.367766
0.366326
0.364735
0.362932
0.361059
0.359057
0.35705
0.354967
0.35292
0.35084
0.34882
0.346786
0.344833
0.374093
0.3752
0.37726
0.377562
0.377091
0.375808
0.373489
0.370864
0.367803
0.364685
0.361328
0.358024
0.354601
0.351286
0.347919
0.344694
0.341468
0.338407
0.377677
0.394075
0.402941
0.402351
0.400305
0.396043
0.390665
0.385163
0.379135
0.373299
0.367224
0.361471
0.355723
0.350301
0.345132
0.340195
0.335731
0.331325
0.405778
0.438979
0.45119
0.455819
0.459119
0.46228
0.464993
0.467261
0.469263
0.470891
0.472549
0.473993
0.475622
0.477157
0.479302
0.480936
0.483775
0.485499
0.479012
0.684925
0.865147
0.9908
1.09436
1.1758
1.23934
1.28333
1.31495
1.3319
1.34305
1.34327
1.34113
1.33596
1.32747
1.31731
1.30635
1.29486
0.00955648
0.0196212
0.0293452
0.0375669
0.0442488
0.0496286
0.0539278
0.0573876
0.0606498
0.0635776
0.0663532
0.069202
0.0723899
0.0761318
0.0807135
0.0863123
0.0928663
0.100202
0.108292
0.117114
0.126737
0.137201
0.148657
0.161066
0.174396
0.188596
0.203675
0.219513
0.236059
0.253188
0.270836
0.288864
0.307221
0.325776
0.344488
0.363245
0.382027
0.400743
0.419392
0.437904
0.456293
0.474503
0.49256
0.51042
0.528114
0.545608
0.562939
0.580082
0.597076
0.613898
0.630577
0.647095
0.663479
0.679708
0.695806
0.711755
0.727571
0.74324
0.758773
0.774156
0.789394
0.804479
0.819406
0.834174
0.848767
0.86319
0.877415
0.89145
0.905261
0.918863
0.932223
0.945372
0.958269
0.970958
0.98339
0.995622
1.0076
1.01939
1.03094
1.04233
1.0535
1.06455
1.0754
1.08616
1.09675
1.10729
1.11769
1.12807
1.13838
1.14871
1.15903
1.16933
1.1796
1.18984
1.20004
1.21019
1.22027
1.23022
1.24002
1.24951
1.25854
1.26676
1.27355
1.27754
1.27518
1.28211
1.29946
1.29875
1.31452
1.31324
1.33024
1.32636
1.32702
1.33115
1.34063
1.33751
1.33977
1.34813
1.34614
1.34413
1.34742
1.34252
1.3393
1.3338
1.32707
1.31914
1.30998
1.29961
1.28798
1.27503
1.2607
1.24506
1.2281
1.20989
1.19045
1.16965
1.14761
1.12446
1.1003
1.07525
1.04946
1.02297
0.995841
0.968765
0.941567
0.913587
0.890931
0.872785
0.855158
0.837532
0.819914
0.802395
0.785016
0.767902
0.750897
0.733947
0.717389
0.701473
0.685829
0.67042
0.655382
0.64082
0.626826
0.613375
0.60043
0.587998
0.576101
0.564717
0.553835
0.543442
0.533521
0.524029
0.514969
0.506166
0.497876
0.489157
0.481755
0.470931
0.465514
0.436735
0.0275808
0.0540013
0.0754212
0.0916878
0.10513
0.116708
0.126893
0.135988
0.144271
0.152305
0.160582
0.169528
0.179492
0.190705
0.20328
0.217199
0.232418
0.24892
0.266678
0.285671
0.305916
0.327434
0.350253
0.374366
0.399757
0.426385
0.45421
0.483161
0.51316
0.54407
0.575774
0.608149
0.641088
0.674473
0.708205
0.742175
0.776301
0.810495
0.844699
0.87885
0.912908
0.946829
0.980593
1.01417
1.04755
1.08073
1.11369
1.14644
1.17898
1.21132
1.24345
1.27538
1.30711
1.33864
1.36996
1.40108
1.43199
1.46269
1.49315
1.52338
1.55336
1.58307
1.6125
1.64163
1.67045
1.69893
1.72706
1.75482
1.7822
1.80912
1.83554
1.86145
1.88682
1.91165
1.93592
1.95961
1.98271
2.00523
2.02716
2.04852
2.06931
2.08956
2.10927
2.12849
2.14722
2.16552
2.1834
2.20092
2.21812
2.23508
2.25183
2.2684
2.2848
2.30107
2.31724
2.33332
2.34932
2.36525
2.38109
2.39679
2.41229
2.42745
2.44215
2.45629
2.46991
2.48424
2.49798
2.50983
2.52352
2.53495
2.54789
2.55814
2.56891
2.57892
2.58807
2.59484
2.6001
2.61273
2.61581
2.62448
2.62515
2.62674
2.62776
2.62811
2.62451
2.61895
2.61123
2.60124
2.58895
2.57419
2.55664
2.53626
2.51303
2.48694
2.45802
2.42631
2.39187
2.35492
2.31563
2.27419
2.23081
2.18571
2.13905
2.0911
2.04252
1.99315
1.94328
1.89353
1.84374
1.79414
1.74499
1.69652
1.64891
1.60227
1.55615
1.51068
1.46637
1.42358
1.38227
1.34215
1.30328
1.26585
1.22998
1.19557
1.16252
1.13087
1.10064
1.07176
1.0442
1.01793
0.992902
0.96905
0.946317
0.924598
0.90392
0.88382
0.865382
0.844979
0.83105
0.789688
0.0446061
0.0857237
0.11381
0.134698
0.152158
0.167594
0.181733
0.195076
0.208066
0.221143
0.234735
0.249235
0.26497
0.282172
0.300975
0.321419
0.343491
0.367142
0.392317
0.418966
0.447057
0.476569
0.507487
0.539787
0.573438
0.608393
0.644596
0.681964
0.720384
0.759724
0.799876
0.840725
0.882163
0.924077
0.966366
1.00893
1.05168
1.09453
1.13741
1.18028
1.22309
1.26579
1.30837
1.35079
1.39305
1.43513
1.47702
1.51873
1.56025
1.60157
1.64271
1.68365
1.7244
1.76495
1.80531
1.84546
1.8854
1.92512
1.96461
2.00386
2.04284
2.08154
2.11993
2.15799
2.1957
2.23302
2.26991
2.30636
2.34233
2.37776
2.41262
2.44689
2.48052
2.51349
2.54577
2.57732
2.60813
2.63817
2.66742
2.69588
2.72354
2.75039
2.77643
2.80168
2.82614
2.84983
2.87277
2.89498
2.91651
2.93739
2.95767
2.97736
2.99649
3.01508
3.03317
3.05078
3.06793
3.08464
3.10092
3.11675
3.13212
3.147
3.1614
3.17534
3.1889
3.20224
3.21514
3.22762
3.24017
3.25188
3.26347
3.27407
3.28426
3.29368
3.30253
3.31016
3.31737
3.32521
3.33013
3.33399
3.33481
3.33437
3.33302
3.32982
3.32383
3.3153
3.30407
3.28996
3.27281
3.25244
3.2287
3.20148
3.17075
3.1365
3.09876
3.0576
3.01314
2.96557
2.91509
2.86192
2.80629
2.74846
2.68866
2.62723
2.56484
2.50203
2.43904
2.37606
2.31318
2.25063
2.1887
2.12765
2.06768
2.00894
1.95141
1.8952
1.84051
1.78752
1.73629
1.68635
1.63778
1.59095
1.54599
1.50276
1.46112
1.42118
1.38298
1.34642
1.31148
1.27814
1.24633
1.21601
1.1871
1.15953
1.13329
1.10812
1.08467
1.06088
1.04386
1.00795
0.0598987
0.117289
0.15157
0.176644
0.197558
0.216171
0.233431
0.249969
0.266297
0.282875
0.300131
0.318448
0.338145
0.359457
0.382522
0.407394
0.434064
0.462481
0.492583
0.524308
0.557607
0.592442
0.628782
0.666588
0.705819
0.746413
0.788291
0.831349
0.875483
0.920597
0.966586
1.01334
1.06075
1.1087
1.1571
1.20585
1.25486
1.30405
1.35336
1.40273
1.45211
1.50147
1.55077
1.59999
1.64911
1.6981
1.74697
1.7957
1.84428
1.89271
1.94098
1.9891
2.03706
2.08485
2.13248
2.17993
2.22719
2.27426
2.32112
2.36775
2.41414
2.46026
2.50608
2.55157
2.5967
2.64143
2.68573
2.72955
2.77284
2.81556
2.85766
2.8991
2.93982
2.97978
3.01894
3.05724
3.09465
3.13113
3.16663
3.20114
3.23462
3.26705
3.29841
3.32869
3.3579
3.38602
3.41306
3.43904
3.46399
3.48792
3.51088
3.53289
3.55397
3.57415
3.59347
3.61196
3.62966
3.64659
3.66278
3.67824
3.69301
3.70708
3.7205
3.73332
3.74557
3.75734
3.76859
3.77938
3.78973
3.79944
3.80862
3.81702
3.82475
3.83179
3.8381
3.84325
3.84766
3.85164
3.85325
3.85316
3.85153
3.84838
3.84345
3.83635
3.82664
3.81418
3.79878
3.78022
3.75831
3.73285
3.70368
3.67071
3.63386
3.59312
3.54852
3.50013
3.44809
3.39257
3.33379
3.27197
3.20737
3.14033
3.07126
3.00061
2.92898
2.85689
2.78463
2.71243
2.64048
2.56902
2.49835
2.42872
2.36036
2.29343
2.22803
2.16428
2.1023
2.0422
1.98406
1.92773
1.87323
1.82067
1.77013
1.72143
1.6743
1.62904
1.58569
1.54413
1.50432
1.4663
1.42998
1.39532
1.36228
1.33077
1.30081
1.27227
1.24553
1.21961
1.19923
1.16741
0.0735166
0.147178
0.188155
0.217645
0.242068
0.263751
0.283871
0.303183
0.322268
0.341619
0.361677
0.382827
0.405391
0.42961
0.455638
0.483551
0.51336
0.545032
0.578515
0.61375
0.650684
0.689268
0.729457
0.771202
0.814449
0.859127
0.905158
0.952452
1.00092
1.05045
1.10094
1.1523
1.2044
1.25715
1.31045
1.3642
1.41832
1.47274
1.5274
1.58224
1.6372
1.69224
1.74733
1.80243
1.85752
1.91257
1.96756
2.02249
2.07735
2.13211
2.18678
2.24136
2.29582
2.35018
2.40442
2.45853
2.51251
2.56634
2.62001
2.67349
2.72677
2.77981
2.83259
2.88508
2.93722
2.98899
3.04032
3.09117
3.14149
3.19121
3.24028
3.28863
3.33621
3.38293
3.42875
3.4736
3.51741
3.56013
3.6017
3.64206
3.68116
3.71898
3.75546
3.79058
3.82432
3.85665
3.88758
3.9171
3.94522
3.97197
3.99736
4.02143
4.04419
4.06568
4.08595
4.10502
4.12294
4.13976
4.1555
4.17021
4.18392
4.19668
4.20851
4.21949
4.22965
4.23906
4.24771
4.25563
4.26284
4.26935
4.27514
4.28
4.28393
4.28719
4.28968
4.29066
4.29041
4.28948
4.28691
4.28289
4.27723
4.26984
4.26049
4.2489
4.23475
4.21782
4.19787
4.17468
4.14801
4.11768
4.0835
4.04534
4.00313
3.95682
3.90643
3.85203
3.79374
3.73174
3.66621
3.59744
3.52576
3.4516
3.37541
3.29769
3.21895
3.1397
3.06026
2.98094
2.90196
2.8236
2.74615
2.66988
2.59502
2.52176
2.45022
2.38055
2.31285
2.24721
2.18369
2.12224
2.06286
2.00561
1.9505
1.89749
1.84643
1.7974
1.75041
1.7052
1.66181
1.62032
1.58062
1.54269
1.50649
1.47199
1.43918
1.40805
1.37883
1.35115
1.32794
1.29745
0.085327
0.175109
0.222874
0.256873
0.284843
0.30956
0.332409
0.354258
0.375753
0.397422
0.419721
0.443046
0.467729
0.494025
0.522117
0.55211
0.58405
0.617932
0.653728
0.69139
0.730869
0.772112
0.815067
0.859678
0.905881
0.953607
1.00278
1.0533
1.10509
1.15806
1.21209
1.26709
1.32297
1.37961
1.43695
1.49487
1.55332
1.61221
1.67147
1.73105
1.79089
1.85095
1.91117
1.97152
2.03197
2.09249
2.15306
2.21366
2.27427
2.33488
2.39549
2.45607
2.51663
2.57715
2.63763
2.69806
2.75843
2.81872
2.87892
2.939
2.99895
3.05872
3.1183
3.17763
3.23667
3.29537
3.35368
3.41153
3.46885
3.52558
3.58164
3.63695
3.69144
3.74501
3.79758
3.84908
3.89941
3.94849
3.99624
4.04259
4.08747
4.13081
4.17254
4.21263
4.25102
4.28769
4.3226
4.35575
4.38712
4.41674
4.44461
4.47076
4.49521
4.51799
4.53914
4.5587
4.57673
4.59327
4.60836
4.62206
4.6344
4.64545
4.65524
4.66384
4.67131
4.67773
4.68305
4.68731
4.69056
4.69296
4.69452
4.69479
4.69368
4.69181
4.68896
4.68482
4.67958
4.67319
4.66539
4.65612
4.64524
4.63261
4.618
4.60119
4.58191
4.55993
4.535
4.50687
4.47531
4.4401
4.40105
4.35801
4.31087
4.25956
4.20408
4.14448
4.08085
4.01337
3.94227
3.86788
3.79058
3.71081
3.62903
3.54573
3.46141
3.37651
3.29142
3.20646
3.12192
3.03808
2.95525
2.87368
2.79363
2.71529
2.63882
2.56436
2.49202
2.42187
2.35397
2.28833
2.22493
2.1638
2.10493
2.04829
1.99381
1.94151
1.89136
1.84327
1.79718
1.7531
1.71081
1.67033
1.63168
1.5948
1.55974
1.52652
1.49531
1.46607
1.44057
1.41021
0.0955573
0.200643
0.254942
0.293363
0.324824
0.352503
0.377968
0.402188
0.425863
0.449551
0.473726
0.498797
0.525108
0.552937
0.582493
0.613917
0.647292
0.682648
0.719984
0.759275
0.800479
0.843548
0.88843
0.935063
0.983383
1.03332
1.0848
1.13773
1.19203
1.24762
1.30439
1.36226
1.42114
1.48094
1.54157
1.60295
1.66501
1.72767
1.79087
1.85453
1.91861
1.98305
2.0478
2.11282
2.17808
2.24353
2.30916
2.37493
2.44083
2.50685
2.57296
2.63916
2.70544
2.77178
2.83819
2.90464
2.97113
3.03765
3.10417
3.17067
3.23713
3.30351
3.36978
3.43589
3.50178
3.56741
3.63271
3.69759
3.762
3.82583
3.88901
3.95143
4.01299
4.0736
4.13315
4.19152
4.24862
4.30433
4.35855
4.41117
4.46211
4.51126
4.55855
4.6039
4.64724
4.68852
4.7277
4.76473
4.79961
4.83233
4.86289
4.89131
4.9176
4.94179
4.96393
4.98404
5.00219
5.01843
5.0328
5.04535
5.05615
5.06525
5.07272
5.07857
5.08293
5.08594
5.08746
5.08744
5.08598
5.08344
5.07967
5.07448
5.06799
5.06032
5.05144
5.04127
5.02987
5.01718
5.0031
4.98755
4.97042
4.95157
4.93084
4.90802
4.88289
4.85521
4.82476
4.79128
4.75454
4.7143
4.67036
4.62254
4.5707
4.51476
4.45467
4.39046
4.32223
4.25018
4.17457
4.09572
4.01401
3.92988
3.84377
3.75615
3.66749
3.57822
3.48874
3.3994
3.31051
3.22238
3.1353
3.04956
2.96539
2.88301
2.80259
2.72428
2.64819
2.57438
2.50293
2.43384
2.36713
2.30279
2.24082
2.18117
2.12381
2.06872
2.01589
1.96526
1.91677
1.8704
1.82602
1.78358
1.74304
1.70429
1.66743
1.63251
1.59968
1.56903
1.54163
1.51091
0.10553
0.223556
0.283784
0.326326
0.361084
0.391573
0.419517
0.445963
0.471652
0.497165
0.522991
0.549547
0.57719
0.606215
0.636858
0.66929
0.703628
0.739941
0.778254
0.818567
0.860855
0.90508
0.951194
0.999141
1.04886
1.10028
1.15333
1.20793
1.26401
1.32148
1.38026
1.44027
1.50143
1.56365
1.62687
1.69099
1.75596
1.82169
1.88813
1.95521
2.02286
2.09104
2.1597
2.22878
2.29825
2.36806
2.4382
2.50862
2.57931
2.65025
2.72142
2.79281
2.86441
2.9362
3.00819
3.08035
3.15268
3.22515
3.29776
3.37048
3.44329
3.51613
3.58898
3.66179
3.7345
3.80704
3.87934
3.95132
4.02288
4.09393
4.16436
4.23406
4.30291
4.37078
4.43755
4.50307
4.56723
4.62989
4.6909
4.75015
4.80751
4.86285
4.91607
4.96707
5.01574
5.06202
5.10584
5.14713
5.18587
5.22202
5.2556
5.28658
5.31498
5.34083
5.36416
5.385
5.40342
5.41945
5.43315
5.44459
5.45381
5.46088
5.46591
5.46883
5.46975
5.46879
5.46603
5.46144
5.45513
5.44722
5.43769
5.42653
5.41383
5.39964
5.38401
5.36695
5.34849
5.32861
5.3073
5.2845
5.26015
5.23415
5.20638
5.17669
5.14489
5.11078
5.07416
5.03479
4.99242
4.94684
4.89782
4.84516
4.7887
4.72832
4.66399
4.59571
4.52361
4.44784
4.36867
4.28639
4.20137
4.11401
4.02472
3.93393
3.84209
3.74962
3.65691
3.56434
3.47224
3.38091
3.29067
3.20178
3.11449
3.02904
2.94559
2.86429
2.78527
2.70859
2.63433
2.5625
2.49312
2.42619
2.36169
2.2996
2.23987
2.18248
2.12741
2.07463
2.02409
1.97575
1.92951
1.88533
1.84316
1.80295
1.7647
1.72841
1.69425
1.66236
1.63336
1.60204
0.116894
0.24384
0.309089
0.355233
0.392943
0.426002
0.456239
0.484757
0.512323
0.53953
0.566869
0.594761
0.623569
0.6536
0.685105
0.718283
0.753277
0.790185
0.829064
0.869936
0.912798
0.957628
1.00439
1.05303
1.10351
1.15575
1.2097
1.26529
1.32245
1.3811
1.44118
1.50262
1.56533
1.62926
1.69434
1.76048
1.82763
1.89572
1.96469
2.03447
2.105
2.17624
2.24812
2.32061
2.39365
2.46721
2.54125
2.61575
2.69068
2.76601
2.84173
2.91783
2.9943
3.07112
3.14828
3.22578
3.3036
3.38173
3.46015
3.53884
3.61776
3.69689
3.77617
3.85556
3.93499
4.01439
4.09367
4.17275
4.25152
4.32987
4.40767
4.4848
4.56111
4.63646
4.71068
4.78364
4.85516
4.92507
4.99323
5.05947
5.12362
5.18555
5.24511
5.30217
5.3566
5.4083
5.45717
5.50313
5.54613
5.58612
5.62309
5.65699
5.68785
5.71567
5.74048
5.76232
5.78122
5.79725
5.81046
5.82091
5.82866
5.83373
5.83612
5.83606
5.83355
5.82871
5.82157
5.8122
5.80066
5.78706
5.77144
5.75385
5.73437
5.71309
5.69008
5.66539
5.63909
5.61122
5.58179
5.55083
5.51831
5.48422
5.44847
5.41099
5.37163
5.33026
5.2867
5.24074
5.19218
5.14079
5.08634
5.02865
4.96752
4.90286
4.83461
4.76277
4.68742
4.60871
4.52684
4.4421
4.35478
4.26524
4.17385
4.08102
3.98712
3.89258
3.79778
3.70311
3.60891
3.51548
3.42312
3.33211
3.24269
3.15509
3.06952
2.9861
2.90497
2.82619
2.74985
2.67596
2.60456
2.53565
2.4692
2.40519
2.3436
2.28439
2.22753
2.17301
2.12079
2.07081
2.02301
1.97734
1.93377
1.89225
1.85279
1.81543
1.7802
1.74723
1.71687
1.68489
0.127046
0.260888
0.33037
0.379598
0.419884
0.455227
0.487542
0.517965
0.547275
0.576065
0.604823
0.633964
0.663847
0.69478
0.727024
0.760789
0.79624
0.833498
0.872644
0.913724
0.956757
1.00174
1.04865
1.09746
1.14813
1.2006
1.25483
1.31076
1.36834
1.4275
1.48819
1.55035
1.61391
1.67883
1.74503
1.81245
1.88105
1.95076
2.02152
2.09327
2.16595
2.23953
2.31393
2.38913
2.46507
2.54171
2.61902
2.69697
2.77553
2.85468
2.9344
3.01468
3.0955
3.17686
3.25875
3.34116
3.42408
3.5075
3.59139
3.67574
3.76051
3.84567
3.93118
4.01697
4.10297
4.18912
4.27532
4.36146
4.44743
4.53311
4.61835
4.703
4.7869
4.86989
4.95177
5.03238
5.11151
5.18898
5.26459
5.33815
5.40946
5.47835
5.54464
5.60816
5.66875
5.72628
5.78063
5.83169
5.87936
5.9236
5.96434
6.00156
6.03524
6.06539
6.09201
6.11514
6.13483
6.15111
6.16406
6.17374
6.18011
6.18325
6.18334
6.18042
6.17455
6.16581
6.15427
6.14001
6.1231
6.10364
6.08169
6.05735
6.03071
6.00188
5.97096
5.93805
5.90325
5.86665
5.82832
5.78835
5.74678
5.70366
5.65899
5.61276
5.5649
5.51535
5.46398
5.41066
5.3552
5.29743
5.23713
5.17411
5.10823
5.03937
4.96745
4.89245
4.81441
4.73344
4.64969
4.56335
4.47469
4.384
4.29158
4.19779
4.10296
4.00748
3.91172
3.81609
3.72091
3.62648
3.53308
3.44097
3.35042
3.26166
3.17487
3.09022
3.00781
2.92773
2.85005
2.77482
2.70207
2.63178
2.56397
2.4986
2.43565
2.3751
2.31692
2.26108
2.20755
2.15629
2.10725
2.06037
2.01564
1.97303
1.93254
1.89422
1.85809
1.82423
1.79273
1.76011
0.135565
0.27443
0.34734
0.399122
0.441588
0.478908
0.513057
0.545193
0.576098
0.606358
0.636447
0.666765
0.697661
0.729434
0.762342
0.796599
0.832381
0.869822
0.909022
0.950047
0.992937
1.03771
1.08436
1.13288
1.18325
1.23542
1.28937
1.34506
1.40244
1.46148
1.52212
1.58433
1.64805
1.71325
1.77986
1.84785
1.91717
1.98775
2.05957
2.13255
2.20666
2.28184
2.35805
2.43525
2.51338
2.59242
2.67233
2.75309
2.83465
2.91701
3.00014
3.08403
3.16867
3.25405
3.34017
3.42701
3.51459
3.60287
3.69185
3.78149
3.87178
3.96267
4.05412
4.14607
4.23845
4.33116
4.42412
4.51722
4.61031
4.70327
4.79594
4.88814
4.97969
5.07041
5.16008
5.2485
5.33544
5.42067
5.50398
5.58513
5.66389
5.74005
5.8134
5.88373
5.95085
6.01458
6.07478
6.13131
6.18404
6.2329
6.2778
6.31869
6.35555
6.38836
6.41713
6.44188
6.46264
6.47946
6.49241
6.50152
6.50673
6.50832
6.50627
6.50065
6.49153
6.479
6.46313
6.44399
6.42167
6.39627
6.36787
6.33658
6.30252
6.2658
6.22658
6.18496
6.14111
6.09515
6.04724
5.99748
5.94604
5.89301
5.8385
5.78257
5.72526
5.66659
5.60652
5.54496
5.48185
5.41709
5.35044
5.28178
5.21098
5.13791
5.06249
4.98466
4.90441
4.82178
4.73685
4.64976
4.56067
4.46981
4.37741
4.28376
4.18914
4.09386
3.99827
3.90284
3.80783
3.71353
3.62019
3.52807
3.4374
3.34846
3.26144
3.17646
3.09365
3.01309
2.93486
2.85902
2.7856
2.71461
2.64604
2.57988
2.51612
2.45473
2.39568
2.33896
2.28453
2.23236
2.18241
2.13465
2.08904
2.04557
2.00426
1.96514
1.92823
1.89361
1.86116
1.82798
0.142336
0.284416
0.35993
0.41372
0.457946
0.496902
0.532608
0.566234
0.598555
0.630143
0.661454
0.692866
0.724708
0.757263
0.790778
0.82546
0.861485
0.898995
0.938098
0.978878
1.02139
1.06567
1.11174
1.1596
1.20926
1.26069
1.31387
1.3688
1.42545
1.48378
1.54379
1.60544
1.66869
1.73351
1.79986
1.86773
1.93706
2.00783
2.07999
2.1535
2.22831
2.3044
2.38171
2.46021
2.53986
2.62063
2.70248
2.78539
2.86933
2.95428
3.04023
3.12715
3.21504
3.30389
3.39371
3.4845
3.57624
3.66894
3.76257
3.8571
3.95252
4.04878
4.14584
4.24364
4.34209
4.44113
4.54063
4.64047
4.74053
4.84064
4.94063
5.04031
5.13948
5.23792
5.33541
5.43169
5.52651
5.61963
5.71077
5.79968
5.88609
5.96974
6.05039
6.12778
6.2017
6.27193
6.33828
6.40057
6.45867
6.51245
6.56182
6.6067
6.64703
6.6828
6.714
6.74064
6.76275
6.78036
6.79354
6.80231
6.80673
6.80693
6.80294
6.79481
6.78261
6.76642
6.74632
6.72237
6.69467
6.66331
6.6284
6.59005
6.5484
6.50358
6.45575
6.40507
6.35173
6.2959
6.23779
6.1776
6.11554
6.05181
5.98661
5.92008
5.85238
5.78369
5.714
5.64336
5.57175
5.49889
5.42493
5.34988
5.27365
5.19613
5.1172
5.03677
4.95476
4.87112
4.78584
4.69896
4.61054
4.52069
4.42958
4.33739
4.24432
4.15063
4.05653
3.9625
3.86885
3.77585
3.68371
3.59267
3.50295
3.41487
3.3286
3.24426
3.16196
3.08178
3.00382
2.92815
2.8548
2.78378
2.7151
2.64875
2.58473
2.52303
2.46362
2.40647
2.35158
2.2989
2.2484
2.20008
2.15389
2.10984
2.06794
2.02822
1.99069
1.95541
1.92219
1.88858
0.14732
0.290901
0.368203
0.423449
0.468997
0.509225
0.546182
0.581037
0.614557
0.647294
0.67968
0.71207
0.744766
0.778028
0.812084
0.847129
0.88333
0.920825
0.959728
1.00013
1.0421
1.08569
1.13094
1.17787
1.2265
1.27684
1.32888
1.38263
1.43808
1.49525
1.55413
1.61472
1.67694
1.74081
1.8063
1.87342
1.94215
2.01246
2.08432
2.15771
2.23259
2.30893
2.3867
2.46587
2.5464
2.62826
2.71144
2.7959
2.88162
2.96858
3.05677
3.14617
3.23675
3.3285
3.42149
3.51571
3.61115
3.70778
3.80559
3.90456
4.00467
4.10589
4.20816
4.31143
4.41561
4.52062
4.62634
4.73265
4.83939
4.94641
5.0535
5.16047
5.26709
5.37312
5.4783
5.58236
5.68503
5.786
5.88499
5.98169
6.0758
6.16703
6.25507
6.33966
6.42051
6.49739
6.57006
6.63832
6.70198
6.76089
6.81493
6.864
6.90802
6.94696
6.9808
7.00953
7.03318
7.05179
7.06538
7.07404
7.0778
7.07684
7.0711
7.06062
7.04549
7.02577
7.00153
6.97285
6.93981
6.90251
6.86106
6.81558
6.76621
6.71311
6.65645
6.59642
6.53323
6.46711
6.39831
6.32712
6.25379
6.17864
6.10198
6.02406
5.9451
5.86496
5.78411
5.70288
5.62156
5.54048
5.45965
5.37871
5.29754
5.21603
5.13406
5.05149
4.96816
4.88397
4.79882
4.71266
4.62545
4.53722
4.44803
4.35797
4.2672
4.17588
4.08429
3.99305
3.90219
3.81188
3.72231
3.63366
3.54614
3.46004
3.37557
3.29286
3.21201
3.13312
3.05627
2.98157
2.90906
2.83874
2.77063
2.70473
2.64105
2.57959
2.52033
2.46325
2.40833
2.35556
2.30492
2.25638
2.20995
2.16561
2.12338
2.08327
2.04532
2.00953
1.97571
1.94182
0.150566
0.294063
0.37235
0.428468
0.474883
0.516003
0.553879
0.589674
0.624139
0.657806
0.691082
0.724295
0.757719
0.791588
0.826104
0.861443
0.897758
0.935177
0.973812
1.01375
1.05508
1.09786
1.14214
1.18797
1.23539
1.28444
1.33508
1.38734
1.44126
1.49688
1.55424
1.61341
1.67425
1.73679
1.80104
1.867
1.93468
2.00405
2.07512
2.14786
2.22226
2.2983
2.37595
2.4552
2.53602
2.61839
2.70229
2.7877
2.8746
2.96299
3.05284
3.14414
3.23689
3.33106
3.42677
3.52396
3.6226
3.7227
3.82422
3.92712
4.03144
4.13715
4.24417
4.35245
4.4619
4.57244
4.68395
4.7963
4.90933
5.02285
5.13668
5.25058
5.36432
5.47763
5.59023
5.70182
5.81209
5.92072
6.02737
6.13171
6.2334
6.33209
6.42746
6.51919
6.60695
6.69048
6.76948
6.84372
6.91298
6.97708
7.03585
7.08918
7.13697
7.17916
7.21572
7.24663
7.27191
7.29159
7.30571
7.31433
7.3175
7.31552
7.30814
7.29543
7.27745
7.25427
7.22594
7.19256
7.15418
7.11092
7.06287
7.01016
6.95295
6.89141
6.82571
6.75608
6.68274
6.60596
6.52606
6.44339
6.35829
6.27104
6.1816
6.09078
5.99916
5.90762
5.81645
5.72561
5.63547
5.54652
5.45797
5.37027
5.28348
5.19753
5.11228
5.02756
4.94317
4.8589
4.77457
4.69
4.60502
4.51953
4.43349
4.34688
4.25974
4.17215
4.08414
3.99638
3.90893
3.82196
3.73565
3.65011
3.56548
3.48251
3.40104
3.32112
3.24284
3.16629
3.09148
3.0186
2.94773
2.87887
2.81203
2.74723
2.68451
2.62388
2.56532
2.50882
2.45436
2.40194
2.35156
2.3032
2.25687
2.21255
2.17027
2.13004
2.09187
2.05577
2.02152
1.98755
0.151975
0.293792
0.372306
0.428826
0.475734
0.5174
0.555871
0.592304
0.62744
0.661793
0.695746
0.7296
0.763601
0.797954
0.832837
0.8684
0.904776
0.942081
0.980417
1.01987
1.06052
1.10244
1.1457
1.19035
1.23647
1.28415
1.33335
1.38412
1.43647
1.49046
1.5461
1.60338
1.66235
1.72308
1.7856
1.84993
1.91609
1.98409
2.05393
2.12561
2.19914
2.27449
2.35167
2.43065
2.51142
2.59397
2.67828
2.76434
2.85213
2.94163
3.03285
3.12576
3.22035
3.31659
3.41452
3.51414
3.61546
3.71847
3.82317
3.92951
4.03756
4.14724
4.25848
4.3712
4.48535
4.60085
4.71757
4.83537
4.9541
5.07356
5.19355
5.31382
5.43413
5.55418
5.67368
5.7923
5.9097
6.02554
6.13943
6.25101
6.35991
6.46573
6.56812
6.6667
6.76112
6.85105
6.93617
7.01621
7.09091
7.16004
7.22342
7.2809
7.33235
7.37769
7.41688
7.44989
7.47673
7.49741
7.51199
7.52054
7.52299
7.52005
7.51102
7.49604
7.47519
7.4485
7.41603
7.37786
7.33407
7.28473
7.22997
7.1699
7.10468
7.03451
6.95958
6.88011
6.79638
6.70862
6.61686
6.52172
6.42374
6.3235
6.22219
6.11976
6.01688
5.91442
5.81183
5.71005
5.60963
5.51099
5.41422
5.31951
5.22699
5.13662
5.04826
4.96172
4.87672
4.79297
4.71018
4.62802
4.54621
4.46449
4.38268
4.30066
4.21836
4.13579
4.05302
3.97031
3.8878
3.80565
3.724
3.64296
3.56262
3.48347
3.40558
3.32905
3.25395
3.18036
3.10835
3.03824
2.96991
2.90337
2.83862
2.77566
2.71456
2.65537
2.59808
2.54269
2.48918
2.43758
2.38789
2.34011
2.29424
2.25028
2.20825
2.16817
2.13002
2.09382
2.0594
2.02555
0.151984
0.291198
0.36926
0.42565
0.472508
0.514222
0.552838
0.5895
0.624933
0.659632
0.693958
0.728189
0.762546
0.797209
0.83233
0.868036
0.904442
0.941646
0.979736
1.01879
1.05889
1.1001
1.14249
1.18611
1.23102
1.27723
1.32477
1.37374
1.42423
1.4763
1.53001
1.58544
1.64261
1.70158
1.76238
1.82506
1.88966
1.9562
2.02472
2.09521
2.16771
2.2422
2.31871
2.39721
2.47771
2.5602
2.64466
2.73109
2.81947
2.9098
3.00206
3.09623
3.19232
3.29032
3.39023
3.49207
3.59584
3.70153
3.8091
3.91854
4.02981
4.1429
4.25777
4.37436
4.49261
4.61241
4.73367
4.85623
4.97995
5.10463
5.23005
5.35597
5.48211
5.6082
5.73389
5.85886
5.98274
6.10514
6.22567
6.34391
6.45946
6.57189
6.6808
6.78576
6.8864
6.98232
7.07318
7.15866
7.23844
7.31228
7.37996
7.44127
7.49609
7.5443
7.58583
7.62065
7.64876
7.67015
7.68488
7.69301
7.6946
7.6904
7.67947
7.66196
7.63792
7.60742
7.57048
7.52719
7.47761
7.42183
7.35995
7.29211
7.21843
7.13896
7.05393
6.96366
6.86848
6.76885
6.66559
6.55882
6.44917
6.33758
6.22359
6.1083
5.99254
5.87707
5.76236
5.64916
5.53815
5.42988
5.32473
5.22299
5.12482
5.03024
4.93913
4.85126
4.76629
4.68383
4.60346
4.52472
4.44715
4.37036
4.294
4.21783
4.14167
4.06542
3.98908
3.91274
3.83651
3.76049
3.6848
3.60953
3.53484
3.46095
3.38801
3.31613
3.24539
3.17587
3.10758
3.04082
2.9756
2.91192
2.8498
2.78926
2.7305
2.67345
2.61809
2.56441
2.5124
2.46211
2.41356
2.36677
2.32174
2.27848
2.237
2.19735
2.15947
2.12344
2.08912
2.05561
0.150549
0.285253
0.362107
0.417869
0.464343
0.505832
0.544364
0.581066
0.616638
0.651555
0.686157
0.720695
0.755363
0.790313
0.825672
0.861541
0.898012
0.935162
0.973064
1.01179
1.0514
1.09198
1.13358
1.17627
1.22012
1.26522
1.31162
1.3594
1.40862
1.45936
1.5117
1.56572
1.62149
1.67907
1.73853
1.79991
1.86328
1.92867
1.99614
2.06571
2.13741
2.21126
2.28727
2.36545
2.4458
2.52831
2.61297
2.69979
2.78874
2.87981
2.97298
3.06825
3.1656
3.26503
3.36653
3.4701
3.57572
3.6834
3.79311
3.90483
4.01854
4.13421
4.25182
4.37128
4.49251
4.61542
4.73994
4.86593
4.99325
5.12171
5.25109
5.38116
5.51165
5.64225
5.77265
5.90248
6.03136
6.1589
6.28466
6.40821
6.5291
6.64688
6.76108
6.87127
6.977
7.07786
7.17345
7.2634
7.34737
7.42508
7.49624
7.56065
7.61812
7.66852
7.71177
7.7478
7.77659
7.79815
7.81249
7.81967
7.82009
7.81426
7.80103
7.78062
7.75305
7.71838
7.67663
7.62781
7.57201
7.5093
7.43978
7.3636
7.28095
7.19225
7.09764
6.99735
6.89182
6.78173
6.6668
6.54787
6.42563
6.30079
6.17385
6.04567
5.91714
5.78918
5.6626
5.53828
5.41705
5.29964
5.18661
5.07837
4.97519
4.87711
4.78402