/*--------------------------------*- C++ -*----------------------------------*\
| =========                 |                                                 |
| \\      /  F ield         | OpenFOAM: The Open Source CFD Toolbox           |
|  \\    /   O peration     | Version:  2212                                  |
|   \\  /    A nd           | Website:  www.openfoam.com                      |
|    \\/     M anipulation  |                                                 |
\*---------------------------------------------------------------------------*/
FoamFile
{
    version     2.0;
    format      ascii;
    arch        "LSB;label=32;scalar=64";
    class       volScalarField;
    location    "100";
    object      nut;
}
// * * * * * * * * * * * * * * * * * * * * * * * * * * * * * * * * * * * * * //

dimensions      [0 2 -1 0 0 0 0];

internalField   nonuniform List<scalar> 
12225
(
2.70739e-05
3.55749e-05
4.05232e-05
4.3193e-05
4.44521e-05
4.49659e-05
4.49131e-05
4.48748e-05
4.45067e-05
4.41902e-05
4.3858e-05
4.35322e-05
4.32376e-05
4.29593e-05
4.27271e-05
4.24957e-05
4.23373e-05
4.21213e-05
0.000213068
8.46254e-05
5.59043e-05
4.40695e-05
3.83665e-05
3.53677e-05
3.38375e-05
3.30916e-05
3.2844e-05
3.28826e-05
3.32067e-05
3.36068e-05
3.42228e-05
3.47959e-05
3.55814e-05
3.62155e-05
3.71368e-05
3.76297e-05
0.000657683
0.000306297
0.000194167
0.000142041
0.000113268
9.4516e-05
8.20495e-05
7.33443e-05
6.68263e-05
6.19974e-05
5.80748e-05
5.51533e-05
5.25774e-05
5.07632e-05
4.89524e-05
4.79168e-05
4.6424e-05
4.54845e-05
0.000863446
0.000609382
0.000451856
0.000350684
0.000289435
0.000246496
0.000216752
0.000194344
0.000177829
0.000164374
0.000154123
0.000145181
0.000138296
0.000131879
0.000127019
0.000122104
0.000118389
0.00011406
0.000877547
0.000776458
0.000691096
0.00059178
0.000517462
0.000458103
0.000413566
0.000377309
0.000349761
0.000326095
0.000308013
0.000291481
0.000279072
0.000266831
0.000258082
0.000248614
0.000242017
0.000234407
0.000858437
0.000835318
0.000807383
0.000753039
0.000699483
0.000648283
0.000604908
0.000565954
0.000534298
0.0005055
0.000482624
0.000460914
0.000444269
0.000427333
0.000415217
0.000401527
0.000392601
0.000380979
0.000854263
0.000849551
0.000840726
0.000823059
0.000798634
0.000768496
0.00073923
0.000709624
0.000683435
0.000657837
0.000636328
0.000614961
0.000597883
0.000580015
0.000566779
0.000551554
0.000541544
0.000527599
0.000852391
0.000851592
0.000849794
0.000844536
0.000835953
0.000824541
0.000810206
0.000793508
0.000777295
0.000760089
0.000744649
0.000728407
0.000714705
0.000699942
0.000688365
0.000675029
0.000665679
0.000652729
0.000851903
0.00085148
0.000851079
0.000849884
0.000847548
0.000843624
0.000838606
0.000831293
0.000823675
0.000815032
0.000806352
0.000796622
0.000787884
0.000778184
0.000769973
0.000760686
0.000753237
0.00074404
0.000851815
0.000851373
0.000851074
0.00085061
0.000850036
0.000848812
0.000847337
0.000844867
0.000842012
0.000838325
0.000834531
0.000829901
0.000825472
0.000820336
0.000815647
0.000810377
0.000805677
0.000799896
0.000851799
0.000851356
0.000851021
0.000850624
0.000850326
0.000849826
0.000849341
0.000848523
0.000847612
0.000846271
0.000844888
0.000843028
0.000841226
0.000838915
0.000836859
0.000834155
0.000832104
0.000828921
0.000851792
0.000851359
0.000851001
0.000850611
0.000850307
0.000849939
0.000849633
0.000849214
0.00084882
0.000848241
0.000847685
0.000846887
0.000846153
0.000845111
0.000844236
0.000842944
0.000842009
0.000840465
0.000851787
0.000851362
0.000850989
0.000850608
0.000850281
0.000849937
0.000849647
0.000849322
0.000849044
0.000848703
0.000848405
0.000848009
0.000847669
0.000847192
0.0008468
0.000846228
0.000845791
0.000845123
0.000851783
0.000851364
0.00085098
0.000850605
0.000850264
0.000849926
0.000849623
0.000849318
0.000849046
0.000848763
0.000848512
0.000848239
0.000847998
0.000847723
0.000847482
0.000847197
0.000846948
0.000846648
0.000851781
0.000851364
0.000850974
0.0008506
0.000850252
0.000849916
0.000849604
0.000849302
0.000849021
0.000848747
0.000848493
0.000848243
0.00084801
0.000847779
0.000847563
0.000847347
0.000847144
0.00084694
0.00085178
0.000851363
0.00085097
0.000850596
0.000850243
0.000849907
0.000849589
0.000849287
0.000849
0.000848726
0.000848466
0.000848217
0.00084798
0.000847752
0.000847536
0.000847327
0.000847128
0.000846936
0.000851779
0.000851362
0.000850967
0.000850592
0.000850237
0.000849899
0.000849579
0.000849274
0.000848985
0.000848708
0.000848445
0.000848194
0.000847954
0.000847724
0.000847504
0.000847294
0.000847092
0.000846899
0.000851779
0.000851362
0.000850965
0.00085059
0.000850233
0.000849894
0.000849572
0.000849266
0.000848974
0.000848696
0.00084843
0.000848177
0.000847935
0.000847703
0.000847481
0.000847269
0.000847066
0.000846871
0.000851779
0.000851362
0.000850965
0.000850589
0.000850232
0.000849892
0.000849569
0.000849262
0.000848969
0.00084869
0.000848423
0.000848169
0.000847925
0.000847692
0.000847469
0.000847256
0.000847051
0.000846856
0.000851779
0.000851363
0.000850966
0.000850591
0.000850234
0.000849895
0.000849572
0.000849265
0.000848972
0.000848694
0.000848427
0.000848172
0.000847927
0.000847694
0.00084747
0.000847255
0.000847048
0.000846851
0.000851779
0.000851364
0.000850968
0.000850595
0.000850238
0.000849901
0.000849578
0.000849273
0.000848977
0.000848698
0.000848424
0.000848165
0.000847907
0.000847663
0.000847416
0.000847183
0.000846942
0.000846718
0.000851778
0.000851368
0.000850969
0.000850603
0.000850243
0.00084991
0.000849572
0.000849253
0.000848914
0.000848585
0.00084822
0.000847861
0.000847452
0.000847054
0.000846589
0.000846153
0.000845629
0.000845162
0.000851779
0.000851381
0.000850972
0.000850624
0.000850209
0.000849788
0.000849232
0.000848613
0.0008478
0.000846891
0.000845763
0.000844551
0.000843115
0.000841651
0.000839944
0.000838314
0.000836369
0.000834683
0.000851856
0.000851467
0.000850932
0.000850394
0.000849126
0.000847455
0.000844944
0.000841932
0.000838065
0.000833832
0.000828945
0.000823901
0.000818427
0.00081296
0.000807242
0.000801665
0.000795878
0.000790796
0.000852785
0.000851379
0.000849189
0.000845092
0.00083688
0.000827809
0.000815737
0.000802802
0.000788346
0.00077433
0.000759616
0.000746018
0.000732051
0.000719606
0.000706734
0.000695749
0.000683993
0.000674601
0.000858212
0.000842298
0.000828961
0.000803005
0.000769247
0.00073545
0.000700771
0.000669657
0.00063944
0.000613521
0.00058853
0.000567649
0.000547212
0.000530545
0.000513748
0.000500486
0.000486443
0.000475942
0.000864341
0.000785611
0.000712708
0.000628284
0.000558257
0.000503051
0.000455703
0.000418808
0.000386559
0.000361516
0.000338682
0.000321136
0.000304321
0.000291669
0.000278811
0.000269443
0.000259268
0.000252201
0.000775968
0.000540051
0.000397932
0.000312941
0.000258133
0.000219603
0.000190474
0.000169526
0.000152514
0.000139948
0.000129053
0.000120969
0.000113482
0.000108025
0.000102588
9.8761e-05
9.46421e-05
9.18673e-05
0.000323584
0.000164836
0.00011141
8.60702e-05
7.0819e-05
6.13492e-05
5.50117e-05
5.08807e-05
4.79477e-05
4.60054e-05
4.45863e-05
4.36843e-05
4.3036e-05
4.26916e-05
4.24522e-05
4.24361e-05
4.24324e-05
4.26188e-05
3.26575e-05
3.90517e-05
4.38921e-05
4.69712e-05
4.93653e-05
5.11689e-05
5.25333e-05
5.34572e-05
5.41117e-05
5.44591e-05
5.46864e-05
5.46906e-05
5.46468e-05
5.45411e-05
5.43669e-05
5.41581e-05
5.39317e-05
5.36935e-05
5.79136e-06
1.7411e-05
2.11843e-05
2.38965e-05
2.58795e-05
2.73605e-05
2.84803e-05
2.94156e-05
3.02718e-05
3.10202e-05
3.17396e-05
3.24892e-05
3.33254e-05
3.42937e-05
3.54593e-05
3.68079e-05
3.82453e-05
3.97456e-05
4.13128e-05
4.29433e-05
4.46446e-05
4.64151e-05
4.82687e-05
5.01874e-05
5.21556e-05
5.41609e-05
5.62015e-05
5.82507e-05
6.03042e-05
6.23477e-05
6.43749e-05
6.63738e-05
6.83422e-05
7.02704e-05
7.21584e-05
7.39994e-05
7.57953e-05
7.75419e-05
7.9243e-05
8.08954e-05
8.25036e-05
8.40656e-05
8.55862e-05
8.70639e-05
8.85034e-05
8.99036e-05
9.1269e-05
9.25986e-05
9.38981e-05
9.51662e-05
9.64068e-05
9.7619e-05
9.88059e-05
9.99667e-05
0.000101104
0.000102216
0.000103306
0.000104373
0.000105417
0.000106438
0.000107438
0.000108414
0.000109369
0.000110301
0.00011121
0.000112097
0.000112963
0.000113806
0.000114625
0.000115418
0.000116184
0.000116925
0.000117639
0.000118328
0.000118988
0.000119624
0.000120232
0.000120816
0.000121374
0.000121909
0.000122419
0.000122908
0.000123376
0.000123826
0.000124255
0.000124671
0.00012507
0.000125459
0.000125836
0.000126208
0.000126573
0.000126934
0.000127291
0.000127645
0.000127998
0.000128348
0.000128695
0.000129034
0.000129362
0.000129667
0.000129937
0.000130137
0.000130184
0.000129863
0.000128712
0.000130334
0.000132601
0.00012958
0.000132573
0.000129679
0.000132634
0.000131048
0.00013088
0.000131994
0.000133288
0.000131314
0.000132114
0.000133484
0.000132722
0.000131694
0.000132592
0.000132074
0.000132046
0.000131804
0.000131491
0.000131132
0.000130718
0.000130254
0.000129743
0.000129173
0.000128537
0.000127836
0.000127065
0.000126224
0.000125328
0.000124366
0.000123314
0.000122186
0.000120982
0.000119698
0.00011835
0.000116944
0.000115393
0.000113817
0.000112385
0.000110006
0.000107831
0.00010658
0.000105439
0.000104286
0.000103105
0.000101911
0.000100686
9.94848e-05
9.8296e-05
9.70485e-05
9.57691e-05
9.45714e-05
9.33831e-05
9.21756e-05
9.09641e-05
8.97588e-05
8.85787e-05
8.74293e-05
8.63041e-05
8.52018e-05
8.41287e-05
8.30854e-05
8.20708e-05
8.10859e-05
8.01307e-05
7.92039e-05
7.8304e-05
7.74253e-05
7.65733e-05
7.5704e-05
7.49221e-05
7.37763e-05
7.37833e-05
7.05659e-05
9.7308e-06
5.93486e-05
0.000121044
0.000168132
0.000200605
0.000223129
0.000238426
0.000247935
0.000252522
0.000254874
0.000256585
0.000258524
0.000261068
0.000264289
0.000268055
0.000272134
0.000276523
0.000281448
0.00028701
0.000293275
0.000300293
0.000308115
0.000316777
0.000326325
0.000336779
0.000348131
0.000360345
0.000373386
0.000387178
0.000401714
0.000416882
0.000432582
0.000448705
0.00046515
0.000481807
0.000498578
0.000515363
0.000532082
0.000548666
0.000565062
0.000581219
0.000597105
0.000612689
0.000627952
0.000642876
0.000657451
0.000671659
0.000685483
0.00069898
0.000712182
0.000725096
0.000737735
0.000750109
0.000762229
0.000774102
0.000785737
0.000797139
0.000808312
0.000819259
0.000829982
0.00084048
0.00085075
0.000860793
0.000870604
0.000880182
0.000889526
0.000898641
0.00090753
0.000916192
0.000924545
0.000932585
0.000940293
0.000947665
0.000954687
0.000961357
0.000967662
0.000973604
0.000979174
0.000984382
0.000989228
0.000993729
0.000997887
0.00100173
0.00100528
0.00100856
0.00101158
0.00101439
0.00101701
0.00101949
0.00102188
0.00102426
0.00102667
0.00102915
0.00103174
0.00103449
0.00103743
0.00104061
0.00104408
0.00104789
0.0010521
0.00105676
0.00106191
0.00106757
0.00107376
0.0010806
0.00108818
0.00109118
0.00109116
0.00109742
0.00109847
0.00110628
0.00111175
0.00112183
0.00112786
0.00113095
0.00112803
0.00113276
0.00114426
0.00114478
0.00115081
0.00115064
0.00115538
0.00116011
0.00116599
0.00116955
0.00117274
0.00117537
0.00117739
0.00117884
0.00117966
0.00117954
0.00117857
0.00117669
0.00117385
0.00117011
0.00116552
0.00115991
0.00115337
0.00114594
0.00113761
0.00112845
0.00111857
0.00110778
0.00109604
0.00108464
0.00107075
0.00105259
0.00103304
0.00101283
0.000992328
0.000971705
0.00095114
0.000930677
0.000910443
0.00089041
0.000870748
0.000851319
0.000832573
0.000814587
0.00079696
0.000779697
0.000762915
0.000746682
0.000730938
0.0007156
0.000700713
0.000686314
0.000672372
0.00065887
0.000645822
0.00063319
0.000620982
0.000609079
0.000597635
0.000586176
0.00057527
0.000564314
0.000549562
0.000536243
0.000481263
1.22877e-05
8.78705e-05
0.000184059
0.000264547
0.00032757
0.000375375
0.000411001
0.000437099
0.000455789
0.000469214
0.000479253
0.000487414
0.000494831
0.000502307
0.000510381
0.000519411
0.000529667
0.000541354
0.000554593
0.000569446
0.000585946
0.000604115
0.000623967
0.000645499
0.000668679
0.000693423
0.000719581
0.000747638
0.000777671
0.000808878
0.000840939
0.000873645
0.000906823
0.000940322
0.000973982
0.00100765
0.00104116
0.00107436
0.00110718
0.00113956
0.00117144
0.00120278
0.00123353
0.00126368
0.00129322
0.00132214
0.00135045
0.00137816
0.0014053
0.00143189
0.00145794
0.00148349
0.00150855
0.00153313
0.00155725
0.00158093
0.00160417
0.00162698
0.00164937
0.00167134
0.00169289
0.00171403
0.00173474
0.00175502
0.00177486
0.00179425
0.00181319
0.00183165
0.00184962
0.00186706
0.00188395
0.00190028
0.00191602
0.00193116
0.00194569
0.00195958
0.00197283
0.00198543
0.00199739
0.0020087
0.00201937
0.00202941
0.00203884
0.00204769
0.00205599
0.00206376
0.00207104
0.00207788
0.00208435
0.00209049
0.0020964
0.00210214
0.00210776
0.00211333
0.0021189
0.00212455
0.00213035
0.00213636
0.00214266
0.0021493
0.00215633
0.00216375
0.00217153
0.00217953
0.00218739
0.00219434
0.00219886
0.0022034
0.00221058
0.00221648
0.00222555
0.00223413
0.0022438
0.00225058
0.00225604
0.00225958
0.00226718
0.00227742
0.00228389
0.0022894
0.00229273
0.00229776
0.00230316
0.00230851
0.00231227
0.002315
0.00231656
0.00231686
0.0023158
0.00231329
0.00230915
0.00230336
0.00229585
0.00228655
0.00227548
0.00226266
0.00224803
0.00223162
0.0022135
0.00219373
0.00217239
0.00214962
0.00212539
0.00209971
0.00207333
0.00204493
0.00201298
0.00197892
0.0019437
0.00190788
0.00187179
0.00183571
0.00179977
0.00176415
0.00172909
0.00169483
0.00166119
0.00162906
0.00159839
0.00156806
0.00153826
0.0015094
0.0014816
0.00145464
0.00142825
0.00140262
0.00137785
0.00135383
0.00133052
0.00130797
0.00128609
0.00126486
0.00124413
0.00122403
0.00120397
0.00118452
0.00116461
0.00114214
0.0011243
0.00104784
1.41645e-05
0.000115187
0.000237622
0.000341367
0.000424835
0.00049045
0.000541269
0.000580149
0.000609661
0.000632145
0.000649714
0.000664225
0.000677255
0.000690075
0.000703661
0.000718713
0.000735704
0.000754923
0.000776529
0.000800585
0.000827103
0.000856059
0.000887414
0.000921111
0.000957081
0.000995256
0.0010356
0.00107751
0.00112044
0.00116445
0.00120935
0.00125487
0.00130084
0.00134716
0.0013937
0.00144033
0.001487
0.0015332
0.00157887
0.00162394
0.00166834
0.00171201
0.00175494
0.00179709
0.00183845
0.00187903
0.00191883
0.00195786
0.00199615
0.00203371
0.00207057
0.00210676
0.00214228
0.00217716
0.00221142
0.00224508
0.00227814
0.00231063
0.00234255
0.0023739
0.00240469
0.00243491
0.00246455
0.00249362
0.0025221
0.00254997
0.00257722
0.00260382
0.00262976
0.00265501
0.00267954
0.00270333
0.00272635
0.00274859
0.00277002
0.00279062
0.00281039
0.00282931
0.00284736
0.00286456
0.0028809
0.0028964
0.00291107
0.00292492
0.00293799
0.0029503
0.00296191
0.00297284
0.00298316
0.00299294
0.00300223
0.00301111
0.00301963
0.00302785
0.00303585
0.00304368
0.00305142
0.00305913
0.00306687
0.00307468
0.00308258
0.00309056
0.00309853
0.00310633
0.00311367
0.00312014
0.00312567
0.00313141
0.00313803
0.00314466
0.0031524
0.00316
0.00316766
0.00317384
0.00317995
0.00318485
0.00319138
0.00320057
0.00320555
0.00320935
0.00321296
0.00321699
0.00322057
0.00322345
0.00322502
0.00322527
0.00322408
0.00322129
0.00321678
0.00321041
0.00320204
0.0031916
0.00317907
0.00316433
0.00314732
0.00312803
0.00310643
0.00308257
0.00305649
0.00302828
0.00299805
0.00296591
0.00293197
0.00289634
0.00285932
0.0028204
0.00277887
0.00273537
0.00269059
0.00264507
0.0025992
0.00255326
0.00250747
0.00246204
0.00241721
0.00237321
0.00233004
0.00228813
0.00224761
0.00220815
0.00217051
0.00213437
0.00209978
0.00206634
0.0020333
0.00200132
0.00197055
0.00194066
0.00191165
0.00188362
0.00185641
0.00182998
0.0018042
0.00177907
0.00175415
0.00172975
0.00170491
0.00167827
0.00165715
0.00158302
1.56367e-05
0.000137858
0.000283775
0.000407549
0.000508084
0.000588399
0.000651836
0.000701668
0.000740774
0.000771725
0.000796838
0.000818179
0.000837553
0.000856472
0.000876144
0.000897468
0.000921072
0.000947347
0.000976506
0.00100863
0.00104372
0.0010817
0.00112247
0.00116589
0.00121179
0.00125998
0.0013102
0.0013621
0.00141537
0.0014698
0.00152519
0.00158134
0.00163801
0.00169492
0.00175185
0.00180861
0.00186496
0.00192082
0.00197608
0.00203068
0.00208453
0.00213759
0.00218982
0.00224119
0.00229169
0.00234131
0.00239006
0.00243794
0.00248498
0.00253118
0.00257657
0.00262117
0.002665
0.00270809
0.00275045
0.0027921
0.00283306
0.00287334
0.00291295
0.00295189
0.00299017
0.00302778
0.00306473
0.00310099
0.00313656
0.00317143
0.00320556
0.00323894
0.00327154
0.00330333
0.00333429
0.00336439
0.00339359
0.00342187
0.0034492
0.00347556
0.00350092
0.00352527
0.00354859
0.00357087
0.0035921
0.00361229
0.00363144
0.00364956
0.00366666
0.00368278
0.00369794
0.00371218
0.00372555
0.00373809
0.00374986
0.00376093
0.00377133
0.00378114
0.0037904
0.00379919
0.00380755
0.00381556
0.00382326
0.00383069
0.00383786
0.00384478
0.0038514
0.00385765
0.00386339
0.00386856
0.0038732
0.00387779
0.00388252
0.00388739
0.00389271
0.00389746
0.00390255
0.00390818
0.00391292
0.00391606
0.00391958
0.00392382
0.00392658
0.00392875
0.00393047
0.0039319
0.0039327
0.0039326
0.00393131
0.00392866
0.0039245
0.00391868
0.00391101
0.00390136
0.00388958
0.00387555
0.00385919
0.00384037
0.00381904
0.00379516
0.00376872
0.00373973
0.00370826
0.0036744
0.00363825
0.00359997
0.00355967
0.00351749
0.00347358
0.0034278
0.00337993
0.00333033
0.0032795
0.0032279
0.0031759
0.0031238
0.00307184
0.00302025
0.00296926
0.00291909
0.00286983
0.00282174
0.00277496
0.00272944
0.0026855
0.00264315
0.00260289
0.00256463
0.00252784
0.0024926
0.00245891
0.00242607
0.00239415
0.00236342
0.00233356
0.0023045
0.00227626
0.00224868
0.00222145
0.00219469
0.00216775
0.00213964
0.00211593
0.0020502
1.68052e-05
0.000157662
0.00032445
0.000466084
0.000581683
0.00067512
0.000749956
0.000809859
0.000857991
0.000897131
0.000929751
0.000958048
0.000983948
0.00100909
0.00103481
0.00106213
0.00109179
0.00112427
0.00115985
0.00119863
0.00124062
0.00128572
0.00133379
0.00138464
0.00143804
0.00149374
0.00155146
0.00161089
0.00167176
0.00173379
0.00179675
0.00186039
0.00192446
0.00198872
0.00205297
0.002117
0.00218066
0.00224381
0.00230635
0.00236819
0.00242926
0.0024895
0.00254888
0.00260736
0.00266492
0.00272157
0.00277728
0.00283208
0.00288598
0.00293898
0.00299111
0.00304239
0.00309284
0.00314248
0.00319134
0.00323942
0.00328675
0.00333334
0.00337921
0.00342435
0.00346877
0.00351247
0.00355545
0.00359769
0.00363918
0.0036799
0.00371983
0.00375894
0.0037972
0.00383459
0.00387106
0.00390658
0.00394111
0.00397463
0.00400709
0.00403846
0.00406871
0.0040978
0.00412571
0.00415242
0.00417791
0.00420216
0.00422518
0.00424695
0.00426747
0.00428677
0.00430486
0.00432176
0.00433751
0.00435214
0.00436569
0.00437821
0.00438975
0.00440036
0.00441009
0.004419
0.00442714
0.00443456
0.00444133
0.00444747
0.00445301
0.00445798
0.00446237
0.00446617
0.00446939
0.00447206
0.00447414
0.00447588
0.00447726
0.00447858
0.00448074
0.00448287
0.00448383
0.0044847
0.00448517
0.00448487
0.00448465
0.00448436
0.00448344
0.00448207
0.00448027
0.00447804
0.00447517
0.00447147
0.00446674
0.0044608
0.00445348
0.00444462
0.00443402
0.00442153
0.00440698
0.00439023
0.00437115
0.00434961
0.00432553
0.00429886
0.00426956
0.00423764
0.00420314
0.00416615
0.00412677
0.00408514
0.00404136
0.00399559
0.00394795
0.00389847
0.0038472
0.0037944
0.00374045
0.00368572
0.00363056
0.00357524
0.00352002
0.00346513
0.00341079
0.0033572
0.00330452
0.00325291
0.00320254
0.00315344
0.00310581
0.00305971
0.0030154
0.00297294
0.00293276
0.00289475
0.00285882
0.0028246
0.00279188
0.00276059
0.00273003
0.00270022
0.00267129
0.00264287
0.0026149
0.00258738
0.0025599
0.00253182
0.00250666
0.00245017
1.77656e-05
0.000174875
0.000359834
0.000517383
0.000646629
0.000752175
0.000837706
0.00090721
0.000964077
0.00101125
0.00105132
0.00108655
0.00111894
0.00115019
0.0011817
0.00121457
0.00124962
0.0012874
0.00132826
0.00137234
0.00141967
0.00147015
0.00152364
0.00157991
0.00163874
0.00169984
0.00176293
0.00182773
0.00189395
0.00196131
0.00202957
0.00209846
0.00216776
0.00223724
0.0023067
0.00237597
0.00244489
0.00251332
0.00258117
0.00264833
0.00271474
0.00278034
0.00284509
0.00290894
0.00297187
0.00303389
0.00309497
0.00315512
0.00321436
0.00327269
0.00333013
0.0033867
0.00344242
0.00349731
0.0035514
0.00360469
0.00365721
0.00370898
0.00376
0.00381028
0.00385983
0.00390864
0.00395671
0.00400403
0.00405058
0.00409634
0.00414128
0.00418538
0.0042286
0.00427091
0.00431225
0.0043526
0.0043919
0.00443011
0.00446717
0.00450305
0.0045377
0.00457108
0.00460313
0.00463383
0.00466314
0.00469103
0.00471747
0.00474246
0.00476596
0.00478798
0.00480852
0.00482759
0.0048452
0.00486138
0.00487616
0.00488957
0.00490165
0.00491244
0.00492199
0.00493036
0.00493759
0.00494374
0.00494886
0.00495299
0.00495618
0.00495846
0.00495987
0.0049604
0.00496016
0.00495946
0.00495773
0.0049556
0.00495317
0.0049503
0.00494752
0.0049441
0.00494022
0.00493596
0.00493129
0.0049262
0.00492095
0.00491553
0.00490979
0.00490376
0.00489743
0.00489075
0.0048836
0.00487583
0.00486729
0.00485781
0.00484724
0.0048354
0.00482211
0.00480718
0.00479043
0.00477169
0.00475081
0.00472765
0.00470209
0.00467403
0.00464343
0.00461027
0.00457458
0.00453641
0.00449585
0.00445299
0.00440796
0.00436087
0.00431184
0.00426099
0.00420847
0.00415454
0.0040995
0.00404369
0.00398739
0.00393088
0.00387442
0.00381821
0.00376249
0.00370744
0.00365322
0.00360001
0.00354794
0.0034971
0.00344763
0.00339962
0.00335323
0.00330855
0.00326581
0.00322538
0.00318768
0.0031524
0.00311917
0.00308771
0.00305751
0.00302836
0.00300006
0.00297211
0.00294466
0.0029176
0.00289075
0.0028637
0.00283832
0.00279035
1.87935e-05
0.000188768
0.000389137
0.000560938
0.000702743
0.000819639
0.000915353
0.000994108
0.00105948
0.00111453
0.00116192
0.00120398
0.00124272
0.00127986
0.00131683
0.00135479
0.00139459
0.00143686
0.00148198
0.00153017
0.00158148
0.00163584
0.00169313
0.00175313
0.00181562
0.00188033
0.00194697
0.00201528
0.00208497
0.00215578
0.00222747
0.00229978
0.00237249
0.00244541
0.00251834
0.00259112
0.00266359
0.00273563
0.00280714
0.00287802
0.00294819
0.0030176
0.0030862
0.00315395
0.00322082
0.0032868
0.00335188
0.00341607
0.00347936
0.00354176
0.0036033
0.00366398
0.00372383
0.00378287
0.00384112
0.0038986
0.00395533
0.00401132
0.0040666
0.00412115
0.004175
0.00422813
0.00428055
0.00433223
0.00438317
0.00443334
0.00448271
0.00453124
0.0045789
0.00462565
0.00467142
0.00471618
0.00475986
0.0048024
0.00484374
0.00488383
0.0049226
0.00495999
0.00499594
0.00503039
0.0050633
0.0050946
0.00512425
0.00515223
0.00517848
0.005203
0.00522576
0.00524675
0.00526598
0.00528344
0.00529916
0.00531316
0.00532546
0.00533611
0.00534515
0.00535262
0.00535857
0.00536306
0.00536615
0.00536788
0.00536829
0.00536742
0.00536542
0.00536207
0.00535755
0.00535261
0.00534697
0.00534031
0.00533281
0.00532473
0.00531617
0.00530701
0.00529732
0.00528717
0.00527663
0.00526575
0.00525467
0.00524346
0.00523211
0.00522064
0.00520906
0.00519733
0.00518541
0.00517317
0.00516053
0.00514733
0.00513342
0.00511865
0.00510283
0.00508577
0.00506727
0.00504714
0.00502519
0.00500126
0.0049752
0.00494688
0.00491621
0.00488316
0.00484771
0.0048099
0.00476976
0.00472737
0.00468281
0.00463616
0.00458753
0.00453706
0.00448495
0.00443147
0.00437691
0.00432153
0.00426563
0.00420945
0.00415322
0.00409718
0.00404152
0.00398644
0.00393211
0.00387869
0.00382632
0.0037751
0.00372516
0.00367659
0.00362951
0.00358403
0.0035403
0.00349857
0.00345949
0.00342355
0.00339015
0.00335883
0.00332911
0.00330071
0.00327336
0.00324675
0.00322074
0.00319497
0.00316947
0.00314404
0.00311938
0.00307852
1.9817e-05
0.000197468
0.000410977
0.000595936
0.000749519
0.000877155
0.000982577
0.00107021
0.00114379
0.00120648
0.00126099
0.00130966
0.00135452
0.00139728
0.00143937
0.00148196
0.00152594
0.00157198
0.00162052
0.00167181
0.00172595
0.00178295
0.00184268
0.00190498
0.00196964
0.0020364
0.00210503
0.00217525
0.00224681
0.00231946
0.00239296
0.0024671
0.00254167
0.00261647
0.00269133
0.0027661
0.00284064
0.00291482
0.00298854
0.00306171
0.00313425
0.00320609
0.0032772
0.00334752
0.00341704
0.00348572
0.00355357
0.00362058
0.00368675
0.0037521
0.00381662
0.00388035
0.00394329
0.00400548
0.00406694
0.00412768
0.00418773
0.0042471
0.00430582
0.00436388
0.0044213
0.00447807
0.00453419
0.00458964
0.00464441
0.00469847
0.00475179
0.00480433
0.00485605
0.00490688
0.00495678
0.00500567
0.0050535
0.00510018
0.00514564
0.0051898
0.00523259
0.00527391
0.0053137
0.00535187
0.00538834
0.00542304
0.00545591
0.00548689
0.00551592
0.00554295
0.00556794
0.00559087
0.00561172
0.00563047
0.00564713
0.0056617
0.00567421
0.00568468
0.00569314
0.00569965
0.00570425
0.00570699
0.00570793
0.00570715
0.00570467
0.00570043
0.00569437
0.00568701
0.00567869
0.00566948
0.00565878
0.0056469
0.00563396
0.00562012
0.00560549
0.00559013
0.00557412
0.00555756
0.00554058
0.00552327
0.00550579
0.00548822
0.00547066
0.00545316
0.00543578
0.00541853
0.0054014
0.00538435
0.0053673
0.00535017
0.00533282
0.0053151
0.00529685
0.00527786
0.00525793
0.00523683
0.00521438
0.00519035
0.00516458
0.0051369
0.00510717
0.00507531
0.00504127
0.00500505
0.00496664
0.00492606
0.00488336
0.00483857
0.00479174
0.00474302
0.00469262
0.00464085
0.00458798
0.00453426
0.00447993
0.00442524
0.00437041
0.00431565
0.00426117
0.00420716
0.00415379
0.00410122
0.0040496
0.00399904
0.00394965
0.00390154
0.00385481
0.00380957
0.00376596
0.00372416
0.00368462
0.00364853
0.00361535
0.00358445
0.00355539
0.00352781
0.00350146
0.0034761
0.00345154
0.0034276
0.00340396
0.00338048
0.00335714
0.00332216
2.06486e-05
0.000203294
0.000427096
0.000623223
0.000787248
0.000924646
0.00103907
0.00113504
0.00121637
0.00128631
0.00134758
0.00140254
0.00145319
0.00150121
0.00154803
0.0015948
0.00164244
0.00169162
0.00174284
0.0017964
0.00185244
0.00191102
0.00197206
0.00203544
0.00210099
0.00216849
0.00223773
0.00230846
0.00238046
0.00245351
0.0025274
0.00260192
0.0026769
0.00275216
0.00282756
0.00290294
0.00297818
0.00305316
0.00312776
0.0032019
0.0032755
0.00334849
0.00342083
0.00349248
0.0035634
0.00363359
0.00370302
0.0037717
0.00383962
0.0039068
0.00397324
0.00403897
0.004104
0.00416837
0.00423209
0.0042952
0.00435771
0.00441966
0.00448104
0.00454188
0.00460219
0.00466196
0.00472119
0.00477987
0.00483798
0.00489549
0.00495237
0.00500857
0.00506404
0.00511872
0.00517254
0.00522542
0.00527729
0.00532805
0.00537761
0.00542587
0.00547273
0.00551808
0.00556183
0.00560387
0.00564409
0.00568241
0.00571872
0.00575294
0.00578498
0.00581478
0.00584228
0.00586741
0.00589015
0.00591045
0.00592831
0.00594371
0.00595666
0.00596718
0.00597529
0.00598104
0.00598446
0.00598563
0.00598459
0.00598144
0.00597604
0.00596839
0.00595884
0.00594794
0.00593554
0.00592141
0.00590568
0.00588845
0.00586988
0.00585011
0.00582927
0.00580748
0.00578489
0.00576163
0.00573786
0.00571374
0.00568944
0.00566511
0.0056409
0.00561692
0.0055933
0.0055701
0.00554738
0.00552515
0.00550341
0.0054821
0.00546112
0.00544035
0.00541965
0.00539884
0.00537767
0.0053559
0.00533334
0.00530974
0.00528489
0.00525857
0.00523059
0.00520078
0.0051691
0.00513549
0.00509987
0.00506221
0.0050225
0.00498075
0.00493688
0.004891
0.00484335
0.00479433
0.00474416
0.00469307
0.00464129
0.00458903
0.00453651
0.00448395
0.00443154
0.00437946
0.0043279
0.00427702
0.00422697
0.00417788
0.00412986
0.004083
0.00403741
0.00399322
0.00395055
0.00390959
0.0038707
0.00383513
0.00380259
0.00377243
0.00374417
0.00371751
0.0036922
0.00366802
0.00364482
0.00362246
0.00360074
0.00357938
0.00355769
0.00352758
2.13222e-05
0.000206954
0.000438313
0.000643352
0.000816219
0.000961977
0.00108456
0.00118811
0.00127655
0.00135315
0.00142066
0.00148141
0.00153737
0.0015902
0.00164127
0.00169174
0.0017425
0.00179424
0.00184749
0.00190257
0.0019597
0.00201896
0.00208033
0.00214374
0.00220906
0.00227613
0.00234474
0.00241472
0.00248585
0.00255796
0.00263086
0.00270439
0.00277839
0.00285276
0.00292735
0.00300204
0.00307671
0.00315121
0.00322542
0.00329926
0.00337264
0.00344552
0.00351784
0.00358956
0.00366067
0.00373114
0.00380096
0.00387013
0.00393866
0.00400656
0.00407383
0.0041405
0.00420659
0.00427214
0.00433718
0.00440174
0.00446586
0.00452954
0.00459283
0.00465572
0.00471824
0.00478039
0.00484216
0.00490356
0.00496455
0.00502511
0.00508521
0.00514479
0.0052038
0.00526216
0.00531981
0.00537664
0.00543257
0.00548748
0.00554126
0.00559379
0.00564495
0.00569461
0.00574263
0.00578889
0.00583325
0.00587558
0.00591577
0.00595369
0.00598923
0.0060223
0.0060528
0.00608065
0.00610579
0.00612816
0.00614772
0.00616445
0.00617834
0.00618939
0.00619762
0.00620306
0.00620575
0.00620574
0.00620312
0.00619792
0.00618993
0.00617961
0.00616702
0.00615253
0.00613597
0.00611734
0.00609676
0.00607434
0.00605024
0.00602461
0.00599762
0.00596944
0.00594023
0.00591018
0.0058795
0.00584838
0.00581704
0.00578569
0.00575453
0.00572375
0.00569354
0.00566404
0.00563538
0.00560765
0.00558088
0.00555512
0.00553027
0.00550627
0.00548301
0.0054604
0.00543806
0.00541578
0.00539337
0.00537058
0.00534712
0.00532274
0.00529714
0.00527006
0.00524151
0.00521132
0.00517937
0.00514555
0.0051098
0.00507209
0.00503214
0.00499002
0.00494597
0.00490056
0.00485395
0.00480633
0.00475791
0.00470887
0.00465945
0.00460984
0.00456024
0.00451083
0.00446179
0.00441329
0.00436549
0.00431854
0.00427253
0.00422757
0.00418378
0.00414128
0.00410023
0.00406081
0.00402342
0.00398916
0.00395773
0.00392857
0.00390131
0.00387566
0.0038514
0.00382836
0.00380643
0.00378548
0.00376538
0.00374597
0.00372604
0.00369998
2.18469e-05
0.000208738
0.000445127
0.000656862
0.000836869
0.000989555
0.00111894
0.001229
0.00132363
0.00140609
0.00147909
0.00154494
0.00160556
0.00166256
0.00171729
0.00177084
0.00182411
0.00187779
0.0019324
0.00198831
0.00204575
0.00210486
0.00216567
0.00222815
0.00229222
0.00235775
0.00242459
0.00249259
0.00256158
0.00263142
0.00270197
0.00277309
0.00284461
0.00291667
0.00298913
0.00306187
0.00313485
0.00320768
0.00328026
0.00335253
0.00342442
0.00349589
0.0035669
0.00363742
0.00370743
0.00377693
0.00384591
0.00391436
0.00398231
0.00404976
0.00411673
0.00418324
0.00424932
0.004315
0.00438036
0.00444544
0.00451027
0.00457487
0.00463927
0.00470349
0.00476754