/*--------------------------------*- C++ -*----------------------------------*\
| =========                 |                                                 |
| \\      /  F ield         | OpenFOAM: The Open Source CFD Toolbox           |
|  \\    /   O peration     | Version:  2212                                  |
|   \\  /    A nd           | Website:  www.openfoam.com                      |
|    \\/     M anipulation  |                                                 |
\*---------------------------------------------------------------------------*/
FoamFile
{
    version     2.0;
    format      ascii;
    arch        "LSB;label=32;scalar=64";
    class       volScalarField;
    location    "100";
    object      p;
}
// * * * * * * * * * * * * * * * * * * * * * * * * * * * * * * * * * * * * * //

dimensions      [0 2 -2 0 0 0 0];

internalField   nonuniform List<scalar> 
12225
(
-2.5564
-4.71399
-5.80704
-6.12162
-6.29964
-6.47985
-6.62969
-6.74352
-6.83771
-6.92351
-7.0043
-7.08139
-7.15642
-7.23134
-7.30901
-7.38969
-7.48856
-7.55786
-5.68654
-6.47435
-6.68003
-6.5928
-6.56899
-6.63475
-6.71957
-6.79605
-6.86807
-6.94016
-7.01216
-7.0834
-7.15439
-7.22628
-7.30107
-7.38059
-7.47039
-7.58484
-6.06657
-6.00076
-6.12077
-6.2087
-6.31824
-6.46221
-6.59872
-6.7113
-6.80778
-6.89626
-6.97936
-7.05817
-7.13419
-7.20919
-7.28542
-7.36451
-7.45158
-7.54446
-5.93926
-5.8521
-6.11174
-6.30479
-6.42848
-6.55113
-6.66642
-6.76288
-6.84645
-6.92445
-6.99929
-7.07153
-7.14216
-7.21248
-7.284
-7.35764
-7.43469
-7.50894
-5.93079
-5.94558
-6.19304
-6.35896
-6.45305
-6.55287
-6.65681
-6.74929
-6.83172
-6.90953
-6.98459
-7.05712
-7.1278
-7.19763
-7.26761
-7.338
-7.40829
-7.47389
-5.99174
-6.03702
-6.22401
-6.36484
-6.45615
-6.55365
-6.65586
-6.74826
-6.83083
-6.90831
-6.98264
-7.05414
-7.12341
-7.19126
-7.2583
-7.32433
-7.38836
-7.44679
-6.05422
-6.09667
-6.24117
-6.37232
-6.46755
-6.56266
-6.66026
-6.74982
-6.8306
-6.90636
-6.97896
-7.04874
-7.11613
-7.18164
-7.24557
-7.30747
-7.36618
-7.41875
-6.10956
-6.14693
-6.2649
-6.38655
-6.4812
-6.5716
-6.6636
-6.74989
-6.82876
-6.90283
-6.97376
-7.04187
-7.10737
-7.17056
-7.23149
-7.28962
-7.34386
-7.39192
-6.16111
-6.19513
-6.29314
-6.40275
-6.4939
-6.57969
-6.66661
-6.74961
-6.82642
-6.89867
-6.96778
-7.03402
-7.09747
-7.15821
-7.21619
-7.27085
-7.32128
-7.36576
-6.20993
-6.2407
-6.3225
-6.41983
-6.50638
-6.58798
-6.67011
-6.74953
-6.82391
-6.89407
-6.96112
-7.02528
-7.08649
-7.14473
-7.19986
-7.25139
-7.29858
-7.34017
-6.25582
-6.28309
-6.3519
-6.43793
-6.51918
-6.59657
-6.67403
-6.74966
-6.82129
-6.88914
-6.95396
-7.01588
-7.07475
-7.13048
-7.1829
-7.23159
-7.27602
-7.31527
-6.295
-6.31915
-6.37844
-6.45517
-6.5311
-6.60448
-6.67781
-6.74989
-6.81882
-6.88438
-6.947
-7.00676
-7.06346
-7.11692
-7.16698
-7.21332
-7.25556
-7.29302
-6.33092
-6.3524
-6.40385
-6.4723
-6.54285
-6.6122
-6.68159
-6.75017
-6.81632
-6.87949
-6.93985
-6.99741
-7.05195
-7.10325
-7.15111
-7.19531
-7.23562
-7.27156
-6.36815
-6.38699
-6.43115
-6.49138
-6.55593
-6.62071
-6.68576
-6.75044
-6.81335
-6.87374
-6.93147
-6.98649
-7.0386
-7.08755
-7.13313
-7.17515
-7.21352
-7.24796
-6.40514
-6.42142
-6.45904
-6.51151
-6.56974
-6.62949
-6.68993
-6.75036
-6.80965
-6.86689
-6.92169
-6.97387
-7.02332
-7.06977
-7.11304
-7.15292
-7.18942
-7.22242
-6.43952
-6.45346
-6.48549
-6.53101
-6.58302
-6.63758
-6.69332
-6.74938
-6.80477
-6.85862
-6.9103
-6.95954
-7.00615
-7.05007
-7.09105
-7.12895
-7.16369
-7.19535
-6.46787
-6.47986
-6.50741
-6.54716
-6.59358
-6.64323
-6.69453
-6.74642
-6.79797
-6.84839
-6.897
-6.94334
-6.98724
-7.02867
-7.06751
-7.10358
-7.1368
-7.16723
-6.48516
-6.49573
-6.52013
-6.55573
-6.59792
-6.64363
-6.6913
-6.73974
-6.78803
-6.83544
-6.88135
-6.92519
-6.96675
-7.00603
-7.04301
-7.07753
-7.10949
-7.13891
-6.48366
-6.49357
-6.51654
-6.55028
-6.59049
-6.63424
-6.67992
-6.72641
-6.77279
-6.81833
-6.86246
-6.90464
-6.94465
-6.98247
-7.01819
-7.05165
-7.08277
-7.11157
-6.45783
-6.46824
-6.49235
-6.52772
-6.56963
-6.61461
-6.6611
-6.70812
-6.75491
-6.80063
-6.84478
-6.88682
-6.92666
-6.9642
-6.99962
-7.03271
-7.06353
-7.09211
-6.42243
-6.43372
-6.46026
-6.49942
-6.54506
-6.59293
-6.64167
-6.69076
-6.73919
-6.78616
-6.8311
-6.87383
-6.91417
-6.9522
-6.98783
-7.02114
-7.052
-7.08082
-6.37927
-6.39126
-6.42155
-6.46728
-6.51851
-6.56985
-6.62152
-6.67365
-6.72483
-6.7738
-6.82016
-6.86394
-6.90516
-6.94383
-6.97989
-7.01341
-7.04443
-7.0733
-6.33169
-6.34298
-6.37776
-6.43349
-6.49238
-6.54768
-6.60252
-6.65789
-6.71186
-6.76302
-6.8112
-6.85648
-6.89897
-6.93858
-6.97541
-7.00946
-7.04104
-7.07046
-6.28219
-6.29113
-6.33221
-6.39928
-6.46493
-6.52521
-6.58565
-6.64555
-6.70218
-6.75496
-6.80445
-6.85084
-6.89407
-6.93416
-6.9712
-7.00543
-7.03706
-7.06642
-6.23072
-6.23188
-6.29454
-6.37573
-6.43867
-6.49859
-6.56529
-6.63194
-6.69314
-6.7492
-6.80145
-6.85012
-6.89503
-6.93625
-6.97404
-7.00877
-7.0408
-7.07089
-6.18424
-6.13562
-6.25119
-6.37227
-6.43421
-6.48602
-6.54977
-6.61554
-6.67613
-6.73221
-6.78515
-6.83483
-6.8808
-6.92307
-6.96186
-6.99756
-7.03045
-7.0609
-6.2012
-6.00304
-6.13598
-6.31362
-6.41836
-6.49814
-6.57662
-6.64792
-6.70985
-6.76564
-6.81728
-6.86494
-6.90845
-6.94811
-6.98428
-7.01744
-7.04821
-7.07786
-6.342
-6.09438
-6.07068
-6.12528
-6.20756
-6.31525
-6.42547
-6.52203
-6.60556
-6.68046
-6.7484
-6.80943
-6.86378
-6.91223
-6.95543
-6.99407
-7.02915
-7.06229
-6.06994
-6.70046
-6.81894
-6.67838
-6.58991
-6.59631
-6.63739
-6.68107
-6.72531
-6.77189
-6.81908
-6.86459
-6.90713
-6.94648
-6.98252
-7.01519
-7.04506
-7.07381
-3.01545
-4.78241
-5.79535
-6.0763
-6.20195
-6.34365
-6.47245
-6.57193
-6.6528
-6.72433
-6.78868
-6.84593
-6.89667
-6.94164
-6.98137
-7.01612
-7.04627
-7.07058
-8.16726
-8.16638
-8.1658
-8.1672
-8.17041
-8.17468
-8.17954
-8.18456
-8.1894
-8.19399
-8.19853
-8.20329
-8.20851
-8.21426
-8.22063
-8.22778
-8.23591
-8.24515
-8.25569
-8.26766
-8.28128
-8.29672
-8.31415
-8.33367
-8.35544
-8.37951
-8.40596
-8.43473
-8.46582
-8.49904
-8.53427
-8.5712
-8.60961
-8.64911
-8.68942
-8.73012
-8.77092
-8.81143
-8.85136
-8.89041
-8.92833
-8.96489
-8.99992
-9.03323
-9.06472
-9.09427
-9.1218
-9.14726
-9.17057
-9.19172
-9.21064
-9.22738
-9.24185
-9.25411
-9.26408
-9.27183
-9.27728
-9.28051
-9.28142
-9.28013
-9.27653
-9.27077
-9.26269
-9.2525
-9.24003
-9.22551
-9.20877
-9.19005
-9.16917
-9.14643
-9.1216
-9.095
-9.06638
-9.03612
-9.00396
-8.97031
-8.93486
-8.89797
-8.85933
-8.81937
-8.77769
-8.73461
-8.68968
-8.64332
-8.59503
-8.54511
-8.49291
-8.43835
-8.38061
-8.31938
-8.25474
-8.18621
-8.11328
-8.03528
-7.95168
-7.86182
-7.76513
-7.66082
-7.54814
-7.42609
-7.29365
-7.1496
-6.99265
-6.82139
-6.63429
-6.43004
-6.20737
-5.96554
-5.70341
-5.42007
-5.11436
-4.78542
-4.43239
-4.05479
-3.6521
-3.22421
-2.77086
-2.29235
-1.78914
-1.26212
-0.712323
-0.141101
0.449955
1.05881
1.6831
2.32008
2.96676
3.61996
4.27634
4.93246
5.58487
6.23018
6.86506
7.48638
8.09116
8.67673
9.24067
9.7809
10.2957
10.7839
11.2444
11.677
12.0817
12.4589
12.8093
13.1343
13.435
13.7118
13.9653
14.1965
14.4067
14.5971
14.7692
14.9242
15.0636
15.1886
15.3004
15.4004
15.4895
15.5687
15.6391
15.7014
15.7566
15.8053
15.8482
15.8859
15.9191
15.9483
15.974
15.9968
16.0173
16.0362
16.0543
16.0727
16.0931
16.1182
16.1545
16.209
16.3084
16.4419
-8.16982
-8.16855
-8.16824
-8.1708
-8.17449
-8.17792
-8.18084
-8.18331
-8.18538
-8.18713
-8.18878
-8.19054
-8.19266
-8.19547
-8.1992
-8.20391
-8.20964
-8.21645
-8.22449
-8.23395
-8.24505
-8.25802
-8.27309
-8.29046
-8.31029
-8.33266
-8.3577
-8.38539
-8.41571
-8.44849
-8.48355
-8.52059
-8.55931
-8.59932
-8.64024
-8.68163
-8.72312
-8.76432
-8.8049
-8.84454
-8.88298
-8.91999
-8.9554
-8.98905
-9.02082
-9.05061
-9.07835
-9.10398
-9.12746
-9.14875
-9.16781
-9.18466
-9.19925
-9.21159
-9.22164
-9.22945
-9.23496
-9.23821
-9.23914
-9.23782
-9.2342
-9.22833
-9.22017
-9.20981
-9.19719
-9.18243
-9.16547
-9.14644
-9.12527
-9.10213
-9.07695
-9.04991
-9.02093
-8.9902
-8.95766
-8.92352
-8.88765
-8.85027
-8.81127
-8.77087
-8.7289
-8.68553
-8.64057
-8.59417
-8.54608
-8.49639
-8.44476
-8.39098
-8.33436
-8.27479
-8.21206
-8.14578
-8.07533
-8.00009
-7.91947
-7.83283
-7.73948
-7.63861
-7.52936
-7.41069
-7.2816
-7.14092
-6.98754
-6.82009
-6.63747
-6.43843
-6.22185
-5.98636
-5.73105
-5.45481
-5.15661
-4.83555
-4.49085
-4.12185
-3.72799
-3.30884
-2.86443
-2.39494
-1.90073
-1.38249
-0.841261
-0.278297
0.30493
0.906526
1.52423
2.15538
2.79713
3.44631
4.09967
4.7538
5.40525
6.05059
6.68648
7.30969
7.91721
8.50624
9.07429
9.6192
10.1392
10.6328
11.0992
11.5379
11.9486
12.3317
12.6877
13.0174
13.3223
13.6033
13.8613
14.0973
14.3122
14.5075
14.6843
14.844
14.988
15.1174
15.2335
15.3375
15.4305
15.5135
15.5873
15.653
15.7112
15.7628
15.8085
15.8488
15.8843
15.9158
15.9437
15.9685
15.9909
16.0116
16.0315
16.0515
16.0736
16.1002
16.1362
16.1866
16.2751
16.3854
-8.16643
-8.16605
-8.16646
-8.1691
-8.17228
-8.17457
-8.17574
-8.176
-8.17557
-8.17467
-8.17362
-8.17275
-8.17241
-8.17282
-8.17414
-8.17643
-8.17983
-8.18451
-8.19068
-8.1986
-8.20854
-8.22071
-8.23532
-8.25254
-8.27254
-8.29536
-8.32101
-8.34936
-8.38029
-8.41354
-8.44884
-8.48584
-8.52422
-8.56358
-8.60361
-8.64394
-8.68425
-8.72421
-8.76356
-8.80202
-8.83936
-8.87538
-8.90991
-8.94279
-8.97391
-9.00317
-9.03046
-9.05574
-9.07893
-9.09999
-9.11889
-9.13561
-9.15011
-9.16238
-9.17239
-9.18016
-9.18564
-9.18885
-9.18976
-9.18839
-9.18472
-9.17878
-9.17055
-9.16006
-9.14732
-9.13238
-9.11525
-9.09598
-9.07459
-9.05117
-9.02573
-8.99836
-8.9691
-8.93805
-8.90524
-8.87077
-8.83467
-8.79702
-8.75784
-8.71724
-8.67518
-8.63173
-8.58686
-8.5406
-8.49283
-8.44354
-8.39257
-8.33961
-8.28425
-8.22624
-8.16551
-8.10161
-8.03389
-7.96187
-7.88484
-7.80223
-7.71322
-7.61705
-7.51272
-7.39925
-7.27555
-7.1405
-6.99301
-6.8318
-6.65582
-6.4638
-6.25472
-6.02725
-5.78037
-5.5128
-5.22368
-4.91198
-4.577
-4.2179
-3.83414
-3.42524
-2.99127
-2.53224
-2.04849
-1.54063
-1.00963
-0.456601
0.117036
0.709527
1.31871
1.94207
2.57682
3.21993
3.86821
4.51828
5.16676
5.81018
6.44522
7.0686
7.67726
8.26837
8.83941
9.38819
9.91288
10.4121
10.885
11.3309
11.7496
12.1413
12.5064
12.8456
13.16
13.4502
13.7172
13.9618
14.1851
14.3884
14.5728
14.7398
14.8907
15.0266
15.1488
15.2585
15.3568
15.4447
15.5232
15.5932
15.6555
15.7108
15.7599
15.8034
15.842
15.8763
15.9067
15.934
15.9587
15.9815
16.0032
16.0251
16.0488
16.0763
16.1119
16.1582
16.2328
16.3077
-8.15522
-8.15752
-8.16026
-8.16373
-8.16689
-8.16888
-8.16963
-8.16937
-8.16838
-8.16686
-8.16511
-8.16341
-8.16206
-8.16134
-8.16151
-8.16277
-8.16538
-8.16955
-8.17552
-8.18349
-8.19367
-8.20621
-8.22127
-8.23892
-8.25924
-8.28222
-8.30785
-8.33601
-8.36656
-8.39924
-8.43383
-8.47
-8.50745
-8.54583
-8.58483
-8.62411
-8.66335
-8.70226
-8.74056
-8.77799
-8.81435
-8.84942
-8.88306
-8.9151
-8.94544
-8.97397
-9.00059
-9.02525
-9.04788
-9.06843
-9.08686
-9.10314
-9.11723
-9.12913
-9.13879
-9.14622
-9.15138
-9.15428
-9.15489
-9.15323
-9.14927
-9.14303
-9.13449
-9.1237
-9.11066
-9.09539
-9.07793
-9.05832
-9.0366
-9.01283
-8.98706
-8.95937
-8.92982
-8.89849
-8.86545
-8.83079
-8.79457
-8.75685
-8.7177
-8.67718
-8.63531
-8.59214
-8.54765
-8.50186
-8.4547
-8.40612
-8.35601
-8.30411
-8.25
-8.19365
-8.13477
-8.07296
-8.0077
-7.93841
-7.86451
-7.78531
-7.70008
-7.60793
-7.50793
-7.39906
-7.28023
-7.15035
-7.00823
-6.85274
-6.68269
-6.49696
-6.29439
-6.07377
-5.83389
-5.57359
-5.29186
-4.98775
-4.66044
-4.30915
-3.9333
-3.53248
-3.10657
-2.65555
-2.17971
-1.67967
-1.15629
-0.61063
-0.0440607
0.541713
1.1446
1.76219
2.39177
3.03037
3.67485
4.32187
4.96806
5.60998
6.24426
6.86762
7.47697
8.06947
8.6426
9.19421
9.72253
10.2262
10.7043
11.1562
11.5816
11.9804
12.353
12.6998
13.0217
13.3193
13.5934
13.845
14.0751
14.2849
14.4757
14.6487
14.8053
14.9467
15.0741
15.1886
15.2915
15.3836
15.4661
15.5397
15.6054
15.664
15.716
15.7623
15.8035
15.8401
15.8727
15.902
15.9286
15.953
15.9763
15.9993
16.0237
16.0511
16.0847
16.125
16.1839
16.2275
-8.13592
-8.14114
-8.14783
-8.15377
-8.1582
-8.161
-8.1623
-8.16241
-8.16165
-8.16028
-8.15862
-8.15696
-8.15562
-8.15491
-8.15514
-8.15656
-8.15946
-8.16405
-8.17056
-8.17916
-8.19003
-8.20332
-8.21914
-8.23755
-8.25859
-8.2822
-8.30831
-8.33677
-8.36741
-8.39997
-8.43421
-8.46983
-8.50656
-8.54406
-8.58205
-8.6202
-8.65826
-8.69593
-8.73299
-8.76919
-8.80434
-8.83826
-8.87079
-8.90179
-8.93115
-8.95875
-8.98452
-9.00838
-9.03026
-9.05011
-9.06789
-9.08356
-9.09707
-9.10841
-9.11753
-9.12444
-9.12909
-9.13148
-9.13158
-9.1294
-9.12492
-9.11816
-9.10909
-9.09776
-9.08416
-9.06834
-9.05032
-9.03014
-9.00786
-8.98353
-8.95723
-8.92902
-8.899
-8.86724
-8.83384
-8.7989
-8.76248
-8.72468
-8.68556
-8.64521
-8.60366
-8.56096
-8.51711
-8.47212
-8.42594
-8.37851
-8.32973
-8.27934
-8.22712
-8.17269
-8.11617
-8.05686
-7.9944
-7.92813
-7.85759
-7.78199
-7.70065
-7.61263
-7.51706
-7.4129
-7.29903
-7.1744
-7.03769
-6.88788
-6.7236
-6.5439
-6.34737
-6.13298
-5.89928
-5.64534
-5.36988
-5.07212
-4.75101
-4.40602
-4.03633
-3.64168
-3.22169
-2.77642
-2.30605
-1.81124
-1.29273
-0.75159
-0.18913
0.392927
0.992541
1.60734
2.23463
2.8715
3.51476
4.16115
4.80721
5.44954
6.08468
6.7094
7.32053
7.91528
8.49111
9.04592
9.57797
10.0859
10.5686
11.0253
11.4559
11.86
12.2379
12.5902
12.9173
13.22
13.4992
13.7556
13.9905
14.205
14.4003
14.5777
14.7385
14.8839
15.0151
15.1333
15.2396
15.335
15.4205
15.497
15.5654
15.6263
15.6806
15.729
15.7721
15.8104
15.8447
15.8755
15.9033
15.9289
15.953
15.9764
16.0006
16.0267
16.057
16.0904
16.1348
16.1532
-8.11132
-8.11938
-8.13106
-8.14024
-8.14662
-8.15089
-8.15341
-8.15452
-8.15462
-8.15403
-8.15308
-8.15209
-8.15142
-8.15139
-8.15234
-8.15456
-8.15834
-8.16388
-8.17143
-8.18114
-8.19316
-8.20759
-8.22451
-8.24393
-8.26586
-8.2902
-8.31687
-8.34566
-8.3764
-8.40883
-8.44273
-8.47779
-8.51377
-8.55037
-8.58732
-8.62436
-8.66124
-8.6977
-8.73353
-8.76852
-8.80248
-8.83524
-8.86665
-8.89659
-8.92493
-8.95158
-8.97645
-8.99945
-9.02053
-9.03962
-9.05667
-9.07163
-9.08447
-9.09515
-9.10363
-9.1099
-9.11391
-9.11565
-9.1151
-9.11226
-9.1071
-9.09964
-9.08986
-9.0778
-9.06346
-9.04688
-9.0281
-9.00716
-8.98411
-8.95904
-8.932
-8.90311
-8.87243
-8.84008
-8.80617
-8.7708
-8.73407
-8.69608
-8.65693
-8.61671
-8.57548
-8.53329
-8.49018
-8.44614
-8.40115
-8.35514
-8.30803
-8.25962
-8.20947
-8.15773
-8.10386
-8.04764
-7.98843
-7.92576
-7.859
-7.7875
-7.71046
-7.62702
-7.53627
-7.43717
-7.32864
-7.20948
-7.0785
-6.93447
-6.77622
-6.60253
-6.41217
-6.20382
-5.97624
-5.72826
-5.45882
-5.16692
-4.85166
-4.51227
-4.14807
-3.75859
-3.34352
-2.90282
-2.43671
-1.94573
-1.4306
-0.892333
-0.332256
0.247919
0.846166
1.46011
2.08708
2.72414
3.3681
4.01565
4.66332
5.30765
5.94519
6.57265
7.18689
7.78507
8.36472
8.92364
9.46004
9.97247
10.4598
10.9213
11.3565
11.7652
12.1477
12.5042
12.8355
13.1422
13.4252
13.6853
13.9238
14.1418
14.3405
14.5212
14.6851
14.8336
14.9678
15.0888
15.1978
15.2958
15.3837
15.4625
15.533
15.5959
15.652
15.702
15.7465
15.7862
15.8217
15.8535
15.8822
15.9084
15.9328
15.9561
15.9794
16.0034
16.0296
16.0559
16.0877
16.086
-8.08537
-8.09602
-8.11271
-8.1252
-8.13373
-8.13982
-8.14393
-8.14644
-8.14781
-8.14842
-8.14865
-8.14883
-8.14934
-8.1505
-8.15267
-8.15612
-8.16116
-8.168
-8.17687
-8.18789
-8.2012
-8.21686
-8.23491
-8.25534
-8.27809
-8.30306
-8.33014
-8.35914
-8.38988
-8.42211
-8.45562
-8.49013
-8.52542
-8.5612
-8.59724
-8.63328
-8.6691
-8.70446
-8.73918
-8.77305
-8.8059
-8.83758
-8.86794
-8.89686
-8.92422
-8.94993
-8.9739
-8.99605
-9.0163
-9.0346
-9.05088
-9.0651
-9.0772
-9.08716
-9.09492
-9.10045
-9.10372
-9.1047
-9.10338
-9.09973
-9.09374
-9.08543
-9.07478
-9.06181
-9.04655
-9.02903
-9.00929
-8.9874
-8.9634
-8.93739
-8.90946
-8.8797
-8.84821
-8.81514
-8.78058
-8.74466
-8.70752
-8.66927
-8.63003
-8.5899
-8.54897
-8.50731
-8.46498
-8.42197
-8.37829
-8.33388
-8.28866
-8.24237
-8.19485
-8.14579
-8.09511
-8.04233
-7.98679
-7.92812
-7.86559
-7.7986
-7.72628
-7.64783
-7.56229
-7.46858
-7.36566
-7.2522
-7.12715
-6.98905
-6.83693
-6.66929
-6.48505
-6.28267
-6.06113
-5.81899
-5.55539
-5.26912
-4.95939
-4.62517
-4.26592
-3.88099
-3.47021
-3.03337
-2.57075
-2.08273
-1.57004
-1.03363
-0.474877
0.104543
0.702588
1.31687
1.94473
2.58315
3.22899
3.87881
4.52918
5.17655
5.81751
6.44867
7.06696
7.66947
8.25366
8.8173
9.35848
9.87572
10.3678
10.8339
11.2736
11.6867
12.0732
12.4336
12.7685
13.0786
13.3647
13.628
13.8694
14.0902
14.2916
14.4749
14.6414
14.7923
14.9287
15.052
15.1631
15.2632
15.3531
15.4337
15.506
15.5706
15.6282
15.6796
15.7254
15.7662
15.8026
15.8351
15.8643
15.8908
15.9151
15.9379
15.9598
15.9812
16.003
16.0221
16.0431
16.0253
-8.06166
-8.07429
-8.09528
-8.11069
-8.12122
-8.12913
-8.13495
-8.139
-8.14182
-8.14383
-8.14546
-8.14705
-8.14897
-8.15156
-8.15516
-8.16005
-8.1665
-8.17473
-8.18495
-8.19726
-8.21179
-8.22857
-8.24762
-8.2689
-8.29235
-8.31785
-8.34526
-8.37441
-8.40511
-8.43713
-8.47027
-8.50428
-8.53892
-8.57396
-8.60918
-8.64432
-8.6792
-8.71359
-8.74731
-8.78018
-8.81204
-8.84274
-8.87215
-8.90015
-8.92662
-8.95147
-8.9746
-8.99595
-9.01542
-9.03295
-9.04848
-9.06196
-9.07332
-9.08253
-9.08952
-9.09428
-9.09674
-9.09689
-9.09469
-9.09014
-9.0832
-9.07389
-9.06221
-9.04818
-9.03182
-9.01318
-8.9923
-8.96926
-8.94413
-8.91701
-8.88799
-8.8572
-8.82476
-8.79081
-8.75549
-8.71894
-8.68132
-8.64275
-8.60339
-8.56335
-8.52274
-8.48167
-8.44019
-8.39833
-8.35609
-8.31344
-8.27029
-8.22644
-8.1816
-8.13576
-8.08853
-8.03944
-7.98801
-7.93365
-7.87578
-7.81365
-7.74647
-7.67337
-7.59337
-7.50541
-7.4083
-7.30086
-7.1818
-7.0499
-6.90384
-6.74235
-6.56409
-6.36778
-6.15211
-5.91582
-5.65778
-5.37694
-5.07229
-4.7429
-4.38807
-4.00725
-3.60013
-3.16658
-2.70673
-2.22093
-1.70987
-1.17452
-0.616227
-0.0366963
0.562017
1.17753
1.80712
2.44778
3.09628
3.74918
4.40301
5.05419
5.69928
6.33488
6.95784
7.5652
8.15435
8.72298
9.26913
9.79123
10.288
10.7587
11.2027
11.6198
12.0101
12.374
12.7121
13.0252
13.3141
13.58
13.8239
14.047
14.2507
14.4361
14.6047
14.7575
14.8959
15.021
15.1339
15.2356
15.3271
15.4093
15.483
15.549
15.608
15.6606
15.7074
15.7491
15.7863
15.8194
15.8489
15.8754
15.8994
15.9212
15.9415
15.9601
15.9774
15.9897
16.0014
15.9704
-8.04262
-8.0566
-8.08073
-8.09836
-8.11052
-8.12
-8.12735
-8.13286
-8.13709
-8.14051
-8.14357
-8.14659
-8.14997
-8.15401
-8.15906
-8.16535
-8.17318
-8.18273
-8.19419
-8.20765
-8.22324
-8.24095
-8.26081
-8.28276
-8.30672
-8.33258
-8.3602
-8.3894
-8.42
-8.45179
-8.48457
-8.51809
-8.55217
-8.58655
-8.62103
-8.6554
-8.68946
-8.72301
-8.75589
-8.7879
-8.81892
-8.84879
-8.8774
-8.9046
-8.9303
-8.95441
-8.97682
-8.99745
-9.01622
-9.03306
-9.04789
-9.06067
-9.07131
-9.07978
-9.086
-9.08995
-9.09156
-9.09082
-9.08767
-9.08211
-9.07411
-9.06369
-9.05084
-9.03559
-9.01796
-8.99802
-8.97582
-8.95145
-8.92499
-8.89656
-8.86628
-8.83429
-8.80072
-8.76575
-8.72954
-8.69225
-8.65406
-8.61513
-8.57562
-8.53568
-8.49543
-8.45501
-8.41447
-8.37388
-8.33325
-8.29254
-8.25168
-8.21047
-8.16877
-8.1262
-8.08277
-8.03774
-7.99071
-7.94103
-7.88815
-7.83125
-7.76957
-7.70219
-7.62806
-7.54617
-7.45517
-7.35398
-7.24112
-7.11552
-6.97563
-6.82037
-6.64817
-6.45795
-6.24809
-6.01754
-5.76488
-5.48923
-5.18932
-4.86441
-4.51356
-4.1364
-3.73242
-3.30158
-2.84383
-2.35961
-1.84948
-1.31449
-0.755956
-0.175624
0.424443
1.04184
1.67381
2.31734
2.96911
3.62573
4.28362
4.93927
5.58909
6.22969
6.85778
7.47036
8.06474
8.63852
9.18973
9.71666
10.2181
10.6931
11.1412
11.5621
11.9559
12.323
12.664
12.9797
13.2711
13.5392
13.7852
14.0103
14.2159
14.4031
14.5734
14.7279
14.8679
14.9945
15.1088
15.2119
15.3048
15.3883
15.4632
15.5304
15.5905
15.6441
15.6919
15.7344
15.7722
15.8057
15.8355
15.8618
15.8852
15.906
15.9243
15.94
15.9529
15.9589
15.9625
15.9209
-8.02974
-8.04447
-8.07023
-8.08921
-8.10247
-8.11309
-8.12164
-8.12837
-8.13382
-8.1385
-8.14285
-8.1472
-8.15192
-8.1573
-8.16366
-8.17123
-8.18028
-8.19096
-8.20347
-8.21788
-8.2343
-8.25273
-8.27318
-8.29558
-8.31987
-8.34592
-8.3736
-8.40273
-8.43315
-8.46466
-8.49706
-8.53013
-8.56368
-8.59748
-8.63134
-8.66505
-8.69843
-8.73129
-8.76347
-8.7948
-8.82514
-8.85434
-8.88229
-8.90886
-8.93394
-8.95743
-8.97924
-8.99928
-9.01745
-9.03369
-9.0479
-9.06003
-9.07
-9.07775
-9.08321
-9.08633
-9.08706
-9.08537
-9.0812
-9.07455
-9.06538
-9.05371
-9.03954
-9.02291
-9.00385
-8.98243
-8.95872
-8.93282
-8.90483
-8.8749
-8.84316
-8.80978
-8.77492
-8.73878
-8.70154
-8.6634
-8.62455
-8.58519
-8.5455
-8.50565
-8.46581
-8.42609
-8.3866
-8.34741
-8.30854
-8.26996
-8.23162
-8.19335
-8.1548
-8.11607
-8.07656
-8.03595
-7.99359
-7.94896
-7.90135
-7.85004
-7.79418
-7.73281
-7.66492
-7.5893
-7.50475
-7.4099
-7.3035
-7.18421
-7.05076
-6.90174
-6.73579
-6.5515
-6.3475
-6.12245
-5.87509
-5.60429
-5.30893
-4.98806
-4.64092
-4.26695
-3.86572
-3.43705
-2.98094
-2.49773
-1.98805
-1.45293
-0.893708
-0.312129
0.28973
0.909425
1.54421
2.19105
2.84663
3.5075
4.17007
4.83071
5.48579
6.13178
6.76535
7.38341
7.98318
8.56222
9.11844
9.65016
10.1561
10.6353
11.0872
11.5116
11.9087
12.2786
12.6222
12.9403
13.2338
13.5039
13.7517
13.9785
14.1857
14.3745
14.5462
14.7021
14.8434
14.9713
15.0869
15.1913
15.2853
15.3699
15.4458
15.514
15.575
15.6296
15.6782
15.7214
15.7597
15.7936
15.8234
15.8496
15.8723
15.8918
15.9082
15.9209
15.9295
15.9298
15.9264
15.8761
-8.02355
-8.03838
-8.0642
-8.08355
-8.09735
-8.10862
-8.11793
-8.12553
-8.13193
-8.13761
-8.14302
-8.14848
-8.15432
-8.16083
-8.16829
-8.17691
-8.18695
-8.19854
-8.21186
-8.22698
-8.24399
-8.2629
-8.28372
-8.30636
-8.33079
-8.35686
-8.38446
-8.41342
-8.44358
-8.47476
-8.50677
-8.5394
-8.57247
-8.60576
-8.63908
-8.67225
-8.70508
-8.7374
-8.76904
-8.79984
-8.82967
-8.85837
-8.88583
-8.91193
-8.93655
-8.95958
-8.98093
-9.0005
-9.0182
-9.03393
-9.0476
-9.05915
-9.06848
-9.07553
-9.08023
-9.08252
-9.08233
-9.07962
-9.07435
-9.06649
-9.05603
-9.04297
-9.02733
-9.00914
-8.98846
-8.96536
-8.93993
-8.9123
-8.88258
-8.85094
-8.81754
-8.78258
-8.74626
-8.70878
-8.67038
-8.63127
-8.59168
-8.55183
-8.51193
-8.47218
-8.43276
-8.39382
-8.35548
-8.31781
-8.28085
-8.2446
-8.20899
-8.1738
-8.13891
-8.10399
-8.06884
-8.03289
-7.99551
-7.95618
-7.91415
-7.86868
-7.81891
-7.7638
-7.70236
-7.63321
-7.55523
-7.46685
-7.36702
-7.25418
-7.12723
-6.98445
-6.8247
-6.64626
-6.44798
-6.22823
-5.98599
-5.71979
-5.42874
-5.11168
-4.76799
-4.39692
-3.99816
-3.57135
-3.11659
-2.63412
-2.12469
-1.58925
-1.02916
-0.446107
0.157816
0.780152
1.41819
2.0688
2.72871
3.39432
4.06204
4.72808
5.38877
6.04045
6.67971
7.30339
7.90861
8.49289
9.05406
9.59044
10.1006
10.5838
11.0393
11.467
11.8669
12.2395
12.5854
12.9056
13.2009
13.4727
13.7221
13.9504
14.159
14.3491
14.5221
14.6792
14.8217
14.9508
15.0674
15.1728
15.2679
15.3534
15.4304
15.4994
15.5613
15.6166
15.666
15.7098
15.7486
15.7827
15.8125
15.8383
15.8603
15.8785
15.8929
15.9027
15.9074
15.9024
15.893
15.8356
-8.02366
-8.03796
-8.06249
-8.08134
-8.0951
-8.10647
-8.11608
-8.12414
-8.13113
-8.1375
-8.14368
-8.14995
-8.15665
-8.164
-8.17229
-8.18171
-8.19247
-8.20471
-8.21859
-8.23417
-8.25154
-8.2707
-8.29166
-8.31436
-8.33874
-8.36467
-8.39206
-8.42075
-8.45059
-8.4814
-8.51302
-8.54523
-8.57785
-8.61069
-8.64356
-8.67628
-8.70869
-8.74059
-8.77184
-8.80228
-8.83176
-8.86013
-8.88729
-8.91308
-8.9374
-8.96013
-8.98117
-9.0004
-9.01772
-9.03304
-9.04624
-9.05726
-9.06599
-9.07236
-9.07628
-9.07771
-9.07654
-9.07274
-9.06625
-9.05706
-9.04516
-9.03055
-9.01324
-8.99331
-8.97079
-8.94579
-8.91842
-8.88883
-8.85715
-8.82359
-8.78833
-8.7516
-8.71363
-8.67466
-8.63495
-8.59476
-8.55434
-8.51395
-8.47382
-8.43417
-8.39522
-8.35713
-8.32003
-8.28402
-8.24915
-8.2154
-8.18271
-8.1509
-8.11971
-8.08906
-8.05846
-8.02738
-7.99525
-7.96142
-7.9252
-7.88579
-7.84226
-7.79363
-7.73867
-7.67617
-7.60471
-7.52302
-7.42971
-7.32348
-7.20285
-7.0664
-6.91261
-6.74004
-6.54723
-6.33277
-6.09537
-5.8338
-5.54691
-5.2337
-4.89338
-4.52526
-4.12888
-3.70393
-3.25044
-2.7687
-2.25938
-1.72343
-1.16219
-0.577334
0.0290325
0.654466
1.29618
1.95103
2.61566
3.28641
3.95958
4.6313
5.29778
5.95529
6.60032
7.22962
7.84026
8.42967
8.99565
9.53647
10.0507
10.5376
10.9964
11.427
11.8295
12.2044
12.5524
12.8744
13.1714
13.4447
13.6954
13.925
14.1348
14.326
14.5001
14.6583
14.8019
14.932
15.0496
15.156
15.252
15.3384
15.4162
15.4861
15.5488
15.6048
15.6548
15.6992
15.7384
15.7727
15.8025
15.8279
15.8491
15.866
15.8784
15.8855
15.8864
15.8768
15.8622
15.799
-8.02911
-8.04231
-8.0646
-8.08222
-8.09537
-8.10633
-8.11575
-8.12385
-8.13105
-8.13776
-8.14436
-8.15113
-8.15836
-8.16627
-8.1751
-8.18502
-8.19624
-8.20886
-8.22305
-8.23884
-8.25634
-8.27553
-8.29644
-8.319
-8.34318
-8.36885
-8.39593
-8.42427
-8.45374
-8.48416
-8.51537
-8.54717
-8.57939
-8.61183
-8.64433
-8.6767
-8.70878
-8.74039
-8.77139
-8.8016
-8.83088
-8.85909
-8.88608
-8.91173
-8.9359
-8.95847
-8.97931
-8.99832
-9.01536
-9.03035
-9.04315
-9.05368
-9.06182
-9.0675
-9.07062
-9.0711
-9.06886
-9.06384
-9.056
-9.04532
-9.03178
-9.01542
-8.99624
-8.97431
-8.94971
-8.92257
-8.89299
-8.86117
-8.82728
-8.79153
-8.75415
-8.71541
-8.67557
-8.63491
-8.59373
-8.55232
-8.51095
-8.46994
-8.42952
-8.38997
-8.3515
-8.31431
-8.27855
-8.24431
-8.21166
-8.1806
-8.15103
-8.12278
-8.09568
-8.06935
-8.04359
-8.01765
-7.99099
-7.96291
-7.93272
-7.89958
-7.86249
-7.82047
-7.77215
-7.71641
-7.65165
-7.57675
-7.49009
-7.39051
-7.27628
-7.14617
-6.9984
-6.83174
-6.64446
-6.43538
-6.20292
-5.94602
-5.66332
-5.35398
-5.01699
-4.65178
-4.25765
-3.83443
-3.38201
-2.90077
-2.39125
-1.85447
-1.2917
-0.704677
-0.0954894
0.533416
1.17915
1.83857
2.50817
3.18429
3.86304
4.54054
5.21284
5.87616
6.5269
7.16171
7.77761
8.37195
8.94252
9.4875
10.0056
10.4957
10.9575
11.3907
11.7956
12.1725
12.5223
12.8458
13.1443
13.4188
13.6708
13.9015
14.1123
14.3046
14.4796
14.6388
14.7833
14.9144
15.033
15.1402
15.2371
15.3244
15.4031
15.4737
15.5372
15.5939
15.6446
15.6894
15.729
15.7634
15.7931
15.8181
15.8385
15.8542
15.8647
15.8692
15.8667
15.8529
15.8338
15.7659
-8.03868
-8.05037
-8.06982
-8.08564
-8.09766
-8.10775
-8.11654
-8.12426
-8.13128
-8.13795
-8.14463
-8.15155
-8.15899
-8.16713
-8.17619
-8.18633
-8.19772
-8.21046
-8.22469
-8.24046
-8.25786
-8.27688
-8.29756
-8.31983
-8.34367
-8.36898
-8.39567
-8.42359
-8.45264
-8.48262
-8.51338
-8.54475
-8.57658
-8.60868
-8.64088
-8.673
-8.70487
-8.73631
-8.76717
-8.79728
-8.8265
-8.85466
-8.88163
-8.90725
-8.93138
-8.95388
-8.97463
-8.99348
-9.01031
-9.02498
-9.03739
-9.0474
-9.0549
-9.0598
-9.06197
-9.06134
-9.05784
-9.05141
-9.042
-9.02958
-9.01416
-8.99574
-8.97437
-8.95013
-8.9231
-8.89344
-8.86131
-8.82691
-8.79044
-8.75217
-8.71237
-8.67132
-8.62936
-8.58678
-8.54393
-8.50114
-8.45872
-8.41701
-8.37628
-8.33684
-8.29892
-8.26274
-8.22844
-8.19617
-8.16597
-8.13783
-8.11167
-8.08734
-8.06445
-8.04304
-8.02236
-8.00195
-7.98109
-7.95913
-7.93531
-7.90872
-7.8784
-7.84317
-7.80185
-7.75299
-7.69527
-7.62722
-7.54748
-7.45454
-7.34694
-7.2231
-7.08153
-6.92068
-6.73906
-6.53519
-6.3077
-6.05526
-5.77672
-5.47102
-5.13725
-4.77465
-4.38259
-3.96077
-3.50915
-3.02805
-2.51803
-1.98005
-1.41543
-0.825904
-0.213594
0.418988
1.06893
1.73301
2.40766
3.08913
3.77345
4.45661
5.1346
5.80353
6.45971
7.09974
7.72055
8.31945
8.8942
9.44296
9.96438
10.4575
10.9219
11.3573
11.7641
12.1428
12.4941
12.819
13.1186
13.3943
13.6473
13.8789
14.0907
14.2839
14.4599
14.62
14.7655
14.8974
15.0169
15.1251
15.2228
15.311
15.3905
15.462
15.5262
15.5836
15.6348
15.6802
15.72
15.7546
15.7842
15.8088
15.8285
15.8429
15.8516
15.8537
15.8482
15.8307
15.8076
15.7359
-8.0511
-8.06105
-8.07732
-8.09092
-8.1014
-8.11021
-8.11797
-8.12491
-8.13136
-8.13762
-8.14399
-8.15071
-8.15801
-8.16604
-8.17502
-8.18506
-8.19633
-8.20891
-8.22294
-8.23846
-8.25555
-8.27421
-8.29447
-8.31629
-8.33964
-8.36443
-8.39059
-8.41798
-8.44651
-8.47599
-8.5063
-8.53727
-8.56874
-8.60053
-8.63248
-8.66439
-8.69612
-8.72746
-8.75828
-8.78838
-8.81762
-8.84582
-8.87283
-8.89848
-8.92262
-8.94509
-8.96575
-8.98444
-9.00101
-9.01533
-9.02725
-9.03664
-9.04337
-9.04732
-9.04837
-9.04644
-9.04145
-9.03333
-9.02204
-9.00754
-8.98985
-8.96899
-8.94502
-8.91806
-8.88821
-8.85566
-8.82059
-8.78323
-8.74384
-8.70273
-8.6602
-8.6166
-8.57229
-8.52762
-8.483
-8.43874
-8.39524
-8.35285
-8.3119
-8.27268
-8.23547
-8.2005
-8.16794
-8.13792
-8.11048
-8.08558
-8.06325
-8.0431
-8.02512
-8.00876
-7.99368
-7.97915
-7.96447
-7.94895
-7.93181
-7.91203
-7.88871
-7.86049
-7.82629
-7.78448
-7.73387
-7.67272
-7.59988
-7.51355
-7.41248
-7.29485
-7.15936
-7.0042
-6.82807
-6.62923
-6.40648
-6.1583
-5.88367
-5.58136
-5.25053
-4.89021
-4.4999
-4.07916
-3.62805
-3.14677
-2.63598
-2.09659
-1.52998
-0.937884
-0.322459
0.313719
0.96776
1.63633
2.31589
3.00249
3.69212
4.38062
5.0639
5.73798
6.3991
7.0438
7.66893
8.27183
8.85017
9.40216
9.92641
10.422
10.8885
11.3258
11.7341
12.1142
12.4667
12.7927
13.0934
13.3701
13.624
13.8565
14.0692
14.2633
14.4402
14.6012
14.7476
14.8805
15.0009
15.11
15.2087
15.2978
15.3781
15.4505
15.5155
15.5736
15.6254
15.6713
15.7114
15.7462
15.7757
15.7999
15.8189
15.8321
15.8393
15.8391
15.8309
15.8102
15.7836
15.7089
-8.06579
-8.07387
-8.08687
-8.09799
-8.10656
-8.1137
-8.12002
-8.12576
-8.13122
-8.13665
-8.14233
-8.14845
-8.15522
-8.16278
-8.1713
-8.18087
-8.19167
-8.20374
-8.21722
-8.23214
-8.24859
-8.26657
-8.28612
-8.30719
-8.32978
-8.35381
-8.37923
-8.40593
-8.4338
-8.46268
-8.49247
-8.52297
-8.55405
-8.58551
-8.6172
-8.64892
-8.68053
-8.71181
-8.74261
-8.77273
-8.80202
-8.83026
-8.85732
-8.88298
-8.9071
-8.92948
-8.94997
-8.96839
-8.98459
-8.99841
-9.00968
-9.01825
-9.02399
-9.02677
-9.02645
-9.02295
-9.01615
-9.00603
-8.99249
-8.97557
-8.95523
-8.93155
-8.90461
-8.87454
-8.84147
-8.80562
-8.7672
-8.72654
-8.6839
-8.63967
-8.59418
-8.54785
-8.50105
-8.45423
-8.40775
-8.36205
-8.31758
-8.2746
-8.23362
-8.19482
-8.15864
-8.12516
-8.09472
-8.06729
-8.04301
-8.02191
-8.00373
-7.98842
-7.97553
-7.96482
-7.95568
-7.94737
-7.93922
-7.93047
-7.92022
-7.90754
-7.89128
-7.8703
-7.84319
-7.80858
-7.76491
-7.71074
-7.64452
-7.56479
-7.46996
-7.35848
-7.22874
-7.07917
-6.90817
-6.71423
-6.49587
-6.25178
-5.98073
-5.68159
-5.35333
-4.99508
-4.60622
-4.18642
-3.73565
-3.25418
-2.74264
-2.20199
-1.63359
-1.03919
-0.42094