/*--------------------------------*- C++ -*----------------------------------*\
| =========                 |                                                 |
| \\      /  F ield         | OpenFOAM: The Open Source CFD Toolbox           |
|  \\    /   O peration     | Version:  2212                                  |
|   \\  /    A nd           | Website:  www.openfoam.com                      |
|    \\/     M anipulation  |                                                 |
\*---------------------------------------------------------------------------*/
FoamFile
{
    version     2.0;
    format      ascii;
    arch        "LSB;label=32;scalar=64";
    class       surfaceScalarField;
    location    "100";
    object      phi;
}
// * * * * * * * * * * * * * * * * * * * * * * * * * * * * * * * * * * * * * //

dimensions      [0 3 -1 0 0 0 0];

oriented        oriented;

internalField   nonuniform List<scalar> 
24170
(
3.11513e-06
7.3278e-08
3.01302e-06
1.02113e-07
2.91759e-06
9.5421e-08
2.82648e-06
9.11136e-08
2.74055e-06
8.5921e-08
2.66313e-06
7.74171e-08
2.59535e-06
6.77756e-08
2.53658e-06
5.87679e-08
2.48571e-06
5.08709e-08
2.44165e-06
4.40567e-08
2.40345e-06
3.81983e-08
2.37031e-06
3.31446e-08
2.34156e-06
2.87447e-08
2.31669e-06
2.48648e-08
2.29544e-06
2.12535e-08
2.27737e-06
1.80639e-08
2.26251e-06
1.48643e-08
1.12421e-08
2.25126e-06
3.46866e-06
2.18663e-08
3.48679e-06
8.39874e-08
3.49347e-06
8.87338e-08
3.49237e-06
9.22109e-08
3.48442e-06
9.38756e-08
3.47086e-06
9.09744e-08
3.453e-06
8.56364e-08
3.43204e-06
7.97215e-08
3.4091e-06
7.38124e-08
3.38509e-06
6.80624e-08
3.36073e-06
6.25634e-08
3.33651e-06
5.73593e-08
3.31283e-06
5.24265e-08
3.28995e-06
4.77401e-08
3.26809e-06
4.31172e-08
3.24748e-06
3.86733e-08
3.22882e-06
3.35154e-08
2.67429e-08
3.21332e-06
3.66802e-06
1.63677e-08
3.68033e-06
7.16762e-08
3.69005e-06
7.90107e-08
3.7001e-06
8.21576e-08
3.70925e-06
8.47222e-08
3.71639e-06
8.38306e-08
3.72142e-06
8.0609e-08
3.72453e-06
7.66017e-08
3.72598e-06
7.23617e-08
3.72601e-06
6.80272e-08
3.72489e-06
6.36874e-08
3.72284e-06
5.94057e-08
3.72008e-06
5.51869e-08
3.71681e-06
5.10075e-08
3.71318e-06
4.67436e-08
3.70955e-06
4.23055e-08
3.70592e-06
3.71433e-08
3.06488e-08
3.70201e-06
3.92496e-06
1.67998e-08
3.93558e-06
6.10506e-08
3.94317e-06
7.14229e-08
3.95023e-06
7.50972e-08
3.95696e-06
7.79913e-08
3.96281e-06
7.79795e-08
3.96784e-06
7.55775e-08
3.97225e-06
7.21921e-08
3.97613e-06
6.84773e-08
3.97955e-06
6.46111e-08
3.98255e-06
6.068e-08
3.98521e-06
5.67446e-08
3.98759e-06
5.28124e-08
3.98974e-06
4.88521e-08
3.99173e-06
4.47569e-08
3.99364e-06
4.03962e-08
3.9953e-06
3.54784e-08
2.96543e-08
3.99629e-06
4.20773e-06
1.61993e-08
4.21611e-06
5.2664e-08
4.22231e-06
6.52206e-08
4.22784e-06
6.95706e-08
4.23333e-06
7.24951e-08
4.23842e-06
7.28871e-08
4.24302e-06
7.09747e-08
4.24723e-06
6.79797e-08
4.25113e-06
6.4583e-08
4.25475e-06
6.09888e-08
4.25814e-06
5.72849e-08
4.26135e-06
5.35312e-08
4.26442e-06
4.9741e-08
4.26739e-06
4.58845e-08
4.27027e-06
4.1876e-08
4.27306e-06
3.76067e-08
4.27562e-06
3.29146e-08
2.76312e-08
4.27764e-06
4.51043e-06
1.48588e-08
4.51715e-06
4.59381e-08
4.52289e-06
5.94813e-08
4.52807e-06
6.43948e-08
4.53326e-06
6.73034e-08
4.53818e-06
6.79628e-08
4.54269e-06
6.6468e-08
4.54683e-06
6.38357e-08
4.55069e-06
6.0725e-08
4.55431e-06
5.73622e-08
4.55775e-06
5.38441e-08
4.56105e-06
5.02349e-08
4.56423e-06
4.65567e-08
4.56733e-06
4.27882e-08
4.57033e-06
3.88696e-08
4.57322e-06
3.47238e-08
4.57586e-06
3.027e-08
2.54536e-08
4.57804e-06
4.83415e-06
1.34249e-08
4.83994e-06
4.0153e-08
4.84561e-06
5.38096e-08
4.85077e-06
5.92298e-08
4.85589e-06
6.21845e-08
4.86078e-06
6.30641e-08
4.86531e-06
6.19403e-08
4.8695e-06
5.96479e-08
4.87341e-06
5.68077e-08
4.87711e-06
5.36634e-08
4.88063e-06
5.03237e-08
4.884e-06
4.6858e-08
4.88726e-06
4.32983e-08
4.89041e-06
3.96357e-08
4.89344e-06
3.58357e-08
4.89631e-06
3.18539e-08
4.89892e-06
2.76657e-08
2.32829e-08
4.90109e-06
5.18096e-06
1.20428e-08
5.18609e-06
3.50301e-08
5.19165e-06
4.82453e-08
5.19683e-06
5.40487e-08
5.20195e-06
5.70669e-08
5.20689e-06
5.81146e-08
5.21152e-06
5.73119e-08
5.21583e-06
5.53362e-08
5.21988e-06
5.27583e-08
5.22371e-06
4.98325e-08
5.22736e-06
4.66778e-08
5.23084e-06
4.33691e-08
5.23419e-06
3.99482e-08
5.23741e-06
3.64202e-08
5.24047e-06
3.27741e-08
5.24333e-06
2.8994e-08
5.2459e-06
2.50911e-08
2.11063e-08
5.24808e-06
5.55268e-06
1.06972e-08
5.55724e-06
3.0474e-08
5.56259e-06
4.28909e-08
5.56776e-06
4.88783e-08
5.57289e-06
5.19297e-08
5.57792e-06
5.30867e-08
5.58268e-06
5.25516e-08
5.58715e-06
5.08673e-08
5.59136e-06
4.85433e-08
5.59535e-06
4.58383e-08
5.59915e-06
4.28789e-08
5.60277e-06
3.97451e-08
5.60623e-06
3.64873e-08
5.60953e-06
3.31251e-08
5.61263e-06
2.96667e-08
5.61551e-06
2.61193e-08
5.61808e-06
2.25138e-08
1.89033e-08
5.62028e-06
5.95108e-06
9.39457e-09
5.95514e-06
2.64081e-08
5.96024e-06
3.77985e-08
5.96536e-06
4.37536e-08
5.9705e-06
4.67881e-08
5.97559e-06
4.80001e-08
5.98046e-06
4.76745e-08
5.98508e-06
4.62482e-08
5.98946e-06
4.41639e-08
5.99362e-06
4.16777e-08
5.99757e-06
3.89215e-08
6.00134e-06
3.5979e-08
6.00492e-06
3.29074e-08
6.0083e-06
2.97395e-08
6.01147e-06
2.64979e-08
6.01438e-06
2.32064e-08
6.01699e-06
1.99051e-08
1.66504e-08
6.01924e-06
6.37805e-06
8.15561e-09
6.38171e-06
2.27484e-08
6.38653e-06
3.29771e-08
6.39158e-06
3.87013e-08
6.3967e-06
4.16605e-08
6.40182e-06
4.288e-08
6.40679e-06
4.27061e-08
6.41154e-06
4.14991e-08
6.41606e-06
3.96368e-08
6.42038e-06
3.73639e-08
6.42448e-06
3.48153e-08
6.42838e-06
3.20772e-08
6.43208e-06
2.9212e-08
6.43555e-06
2.62614e-08
6.43879e-06
2.32597e-08
6.44176e-06
2.02395e-08
6.44442e-06
1.72448e-08
1.43285e-08
6.44674e-06
5.74183e-06
7.1603e-09
5.74465e-06
1.9926e-08
5.74851e-06
2.91128e-08
5.75271e-06
3.45037e-08
5.75702e-06
3.735e-08
5.76135e-06
3.85447e-08
5.7656e-06
3.84562e-08
5.7697e-06
3.74033e-08
5.77362e-06
3.57136e-08
5.77736e-06
3.3616e-08
5.78093e-06
3.12447e-08
5.78432e-06
2.86877e-08
5.78752e-06
2.60083e-08
5.79053e-06
2.32561e-08
5.79332e-06
2.04687e-08
5.79587e-06
1.76854e-08
5.79817e-06
1.49476e-08
1.23066e-08
5.80019e-06
6.99922e-06
6.09351e-09
7.00222e-06
1.69254e-08
7.00642e-06
2.49162e-08
7.0111e-06
2.98133e-08
7.016e-06
3.24557e-08
7.02096e-06
3.35779e-08
7.02587e-06
3.35452e-08
7.03064e-06
3.26361e-08
7.03523e-06
3.11259e-08
7.03962e-06
2.92222e-08
7.04381e-06
2.70555e-08
7.04778e-06
2.47122e-08
7.05153e-06
2.22581e-08
7.05504e-06
1.97439e-08
7.05829e-06
1.72134e-08
7.06127e-06
1.47048e-08
7.06396e-06
1.22593e-08
9.91844e-09
7.06635e-06
8.53198e-06
4.96347e-09
8.53512e-06
1.37756e-08
8.53962e-06
2.04188e-08
8.54479e-06
2.46417e-08
8.55028e-06
2.69644e-08
8.55591e-06
2.79472e-08
8.56153e-06
2.79263e-08
8.56702e-06
2.71388e-08
8.57234e-06
2.58091e-08
8.57744e-06
2.41156e-08
8.58231e-06
2.21815e-08
8.58694e-06
2.00883e-08
8.59129e-06
1.79009e-08
8.59537e-06
1.56693e-08
8.59914e-06
1.34378e-08
8.6026e-06
1.12438e-08
8.60573e-06
9.12282e-09
7.10944e-09
8.60854e-06
1.04004e-05
3.78221e-09
1.04037e-05
1.05e-08
1.04084e-05
1.56485e-08
1.04141e-05
1.90075e-08
1.04202e-05
2.08699e-08
1.04265e-05
2.1628e-08
1.04328e-05
2.15586e-08
1.04391e-05
2.0859e-08
1.04452e-05
1.97009e-08
1.04511e-05
1.82318e-08
1.04567e-05
1.65556e-08
1.04621e-05
1.47506e-08
1.04671e-05
1.28713e-08
1.04718e-05
1.0968e-08
1.04762e-05
9.07773e-09
1.04802e-05
7.237e-09
1.04838e-05
5.47239e-09
3.8115e-09
1.04871e-05
1.2678e-05
2.55744e-09
1.26814e-05
7.10056e-09
1.26864e-05
1.06128e-08
1.26925e-05
1.29174e-08
1.26992e-05
1.41617e-08
1.27063e-05
1.45883e-08
1.27134e-05
1.43986e-08
1.27205e-05
1.37398e-08
1.27275e-05
1.27376e-08
1.27342e-05
1.14977e-08
1.27407e-05
1.01053e-08
1.27468e-05
8.6205e-09
1.27526e-05
7.0926e-09
1.2758e-05
5.55831e-09
1.2763e-05
4.05215e-09
1.27677e-05
2.59934e-09
1.27719e-05
1.2238e-09
-6.0155e-11
1.27758e-05
1.54545e-05
1.28259e-09
1.5458e-05
3.53905e-09
1.54634e-05
5.26481e-09
1.54699e-05
6.3271e-09
1.54773e-05
6.7837e-09
1.54852e-05
6.7582e-09
1.54932e-05
6.3654e-09
1.55012e-05
5.69532e-09
1.55091e-05
4.82381e-09
1.55168e-05
3.81617e-09
1.55242e-05
2.72601e-09
1.55312e-05
1.59495e-09
1.55379e-05
4.55018e-10
1.55441e-05
-6.67893e-10
1.55499e-05
-1.75211e-09
1.55553e-05
-2.77954e-09
1.55602e-05
-3.73607e-09
-4.61346e-09
1.55648e-05
1.8839e-05
-7.93429e-11
1.88428e-05
-3.00138e-10
1.88487e-05
-5.59586e-10
1.88559e-05
-9.44285e-10
1.88642e-05
-1.45071e-09
1.8873e-05
-2.05431e-09
1.88821e-05
-2.73241e-09
1.88912e-05
-3.46272e-09
1.89003e-05
-4.22304e-09
1.89091e-05
-4.99327e-09
1.89176e-05
-5.75707e-09
1.89257e-05
-6.50004e-09
1.89333e-05
-7.21071e-09
1.89405e-05
-7.87929e-09
1.89473e-05
-8.49797e-09
1.89535e-05
-9.05977e-09
1.89594e-05
-9.55942e-09
-9.99601e-09
1.89647e-05
2.29649e-05
-1.62668e-09
2.29693e-05
-4.69947e-09
2.2976e-05
-7.27903e-09
2.29844e-05
-9.38076e-09
2.2994e-05
-1.1034e-08
2.30043e-05
-1.23305e-08
2.30149e-05
-1.33583e-08
2.30256e-05
-1.41746e-08
2.30362e-05
-1.48132e-08
2.30465e-05
-1.53115e-08
2.30565e-05
-1.56972e-08
2.3066e-05
-1.59941e-08
2.3075e-05
-1.62134e-08
2.30834e-05
-1.63668e-08
2.30914e-05
-1.64597e-08
2.30988e-05
-1.65001e-08
2.31058e-05
-1.649e-08
-1.64375e-08
2.31122e-05
1.68119e-05
-2.81991e-09
1.68153e-05
-8.06707e-09
1.68204e-05
-1.24402e-08
1.68269e-05
-1.5822e-08
1.68341e-05
-1.82698e-08
1.68418e-05
-2.00173e-08
1.68497e-05
-2.12632e-08
1.68576e-05
-2.21037e-08
1.68654e-05
-2.26209e-08
1.6873e-05
-2.28878e-08
1.68803e-05
-2.29755e-08
1.68872e-05
-2.29252e-08
1.68938e-05
-2.27744e-08
1.68999e-05
-2.2542e-08
1.69057e-05
-2.22512e-08
1.69111e-05
-2.19111e-08
1.69162e-05
-2.15354e-08
-2.11294e-08
1.69209e-05
1.46357e-05
-3.94277e-09
1.46389e-05
-1.12897e-08
1.46439e-05
-1.74199e-08
1.465e-05
-2.19416e-08
1.46567e-05
-2.50083e-08
1.46638e-05
-2.70963e-08
1.4671e-05
-2.84798e-08
1.46782e-05
-2.92824e-08
1.46852e-05
-2.96276e-08
1.4692e-05
-2.96481e-08
1.46984e-05
-2.94363e-08
1.47046e-05
-2.90583e-08
1.47104e-05
-2.85587e-08
1.47158e-05
-2.7976e-08
1.47209e-05
-2.73361e-08
1.47256e-05
-2.66604e-08
1.47301e-05
-2.59609e-08
-2.52508e-08
1.47342e-05
1.27411e-05
-4.95698e-09
1.27443e-05
-1.44934e-08
1.27494e-05
-2.24775e-08
1.27554e-05
-2.79111e-08
1.27617e-05
-3.13767e-08
1.27684e-05
-3.37218e-08
1.27751e-05
-3.51924e-08
1.27817e-05
-3.58887e-08
1.27881e-05
-3.60125e-08
1.27942e-05
-3.57544e-08
1.28e-05
-3.52331e-08
1.28054e-05
-3.45263e-08
1.28106e-05
-3.36913e-08
1.28154e-05
-3.27777e-08
1.28199e-05
-3.18161e-08
1.2824e-05
-3.08332e-08
1.28279e-05
-2.98398e-08
-2.88492e-08
1.28315e-05
1.10917e-05
-5.72909e-09
1.10949e-05
-1.77233e-08
1.11003e-05
-2.78233e-08
1.11062e-05
-3.38248e-08
1.11122e-05
-3.74372e-08
1.11185e-05
-3.99542e-08
1.11247e-05
-4.14362e-08
1.11308e-05
-4.19674e-08
1.11366e-05
-4.18432e-08
1.11422e-05
-4.12999e-08
1.11474e-05
-4.04679e-08
1.11523e-05
-3.9435e-08
1.11569e-05
-3.82769e-08
1.11612e-05
-3.70474e-08
1.11651e-05
-3.57895e-08
1.11688e-05
-3.4525e-08
1.11723e-05
-3.32757e-08
-3.20511e-08
1.11755e-05
9.65563e-06
-6.14568e-09
9.659e-06
-2.10933e-08
9.66454e-06
-3.33694e-08
9.67027e-06
-3.95535e-08
9.6761e-06
-4.32726e-08
9.68206e-06
-4.59154e-08
9.6879e-06
-4.72729e-08
9.69348e-06
-4.75446e-08
9.69877e-06
-4.71432e-08
9.70379e-06
-4.63157e-08
9.7085e-06
-4.51831e-08
9.71291e-06
-4.3843e-08
9.71702e-06
-4.23812e-08
9.72083e-06
-4.0864e-08
9.72438e-06
-3.93324e-08
9.72766e-06
-3.78145e-08
9.73071e-06
-3.63225e-08
-3.48529e-08
9.73351e-06
8.40494e-06
-5.72885e-09
8.40928e-06
-2.54418e-08
8.41466e-06
-3.87449e-08
8.41971e-06
-4.4606e-08
8.42521e-06
-4.87744e-08
8.43099e-06
-5.16969e-08
8.43661e-06
-5.28982e-08
8.44193e-06
-5.28676e-08
8.44695e-06
-5.21589e-08
8.45165e-06
-5.10212e-08
8.45604e-06
-4.95708e-08
8.46011e-06
-4.79167e-08
8.46388e-06
-4.61547e-08
8.46737e-06
-4.4356e-08
8.47061e-06
-4.25649e-08
8.4736e-06
-4.08112e-08
8.4764e-06
-3.91184e-08
-3.75003e-08
8.47904e-06
7.31364e-06
-2.08321e-09
7.32067e-06
-3.24773e-08
7.32644e-06
-4.45099e-08
7.33119e-06
-4.93647e-08
7.33651e-06
-5.40916e-08
7.3421e-06
-5.72867e-08
7.34755e-06
-5.83507e-08
7.35276e-06
-5.8086e-08
7.35772e-06
-5.71184e-08
7.36238e-06
-5.56801e-08
7.36671e-06
-5.39062e-08
7.37072e-06
-5.19238e-08
7.37441e-06
-4.98496e-08
7.37781e-06
-4.77565e-08
7.38094e-06
-4.56944e-08
7.38382e-06
-4.3694e-08
7.38647e-06
-4.17658e-08
-3.98613e-08
7.38883e-06
6.36046e-06
7.52077e-09
6.37027e-06
-4.22842e-08
6.37812e-06
-5.23625e-08
6.38514e-06
-5.6385e-08
6.3922e-06
-6.11606e-08
6.39875e-06
-6.38384e-08
6.40467e-06
-6.42687e-08
6.41014e-06
-6.35547e-08
6.41525e-06
-6.22313e-08
6.42e-06
-6.04336e-08
6.42438e-06
-5.82849e-08
6.42838e-06
-5.59311e-08
6.43203e-06
-5.34978e-08
6.43533e-06
-5.10622e-08
6.43832e-06
-4.86813e-08
6.44102e-06
-4.63972e-08
6.4435e-06
-4.42418e-08
-4.22406e-08
6.44588e-06
5.53916e-06
1.38199e-08
5.5475e-06
-5.06192e-08
5.55581e-06
-6.06789e-08
5.56603e-06
-6.66044e-08
5.57719e-06
-7.23189e-08
5.58763e-06
-7.4285e-08
5.59679e-06
-7.34294e-08
5.60468e-06
-7.14492e-08
5.61138e-06
-6.89303e-08
5.61696e-06
-6.60114e-08
5.62149e-06
-6.28169e-08
5.62506e-06
-5.95025e-08
5.62776e-06
-5.62036e-08
5.62969e-06
-5.29934e-08
5.63093e-06
-4.99235e-08
5.63159e-06
-4.70637e-08
5.63177e-06
-4.4422e-08
-4.20968e-08
5.63163e-06
4.87157e-06
-3.01458e-08
4.88647e-06
-6.55179e-08
4.89719e-06
-7.14057e-08
4.90595e-06
-7.53589e-08
4.91296e-06
-7.9335e-08
4.9172e-06
-7.85267e-08
4.91798e-06
-7.42142e-08
4.91519e-06
-6.86589e-08
4.90913e-06
-6.28776e-08
4.90033e-06
-5.72104e-08
4.88934e-06
-5.18295e-08
4.87667e-06
-4.68354e-08
4.86277e-06
-4.23084e-08
4.84802e-06
-3.82402e-08
4.83271e-06
-3.46168e-08
4.8171e-06
-3.14605e-08
4.80147e-06
-2.87867e-08
-2.7094e-08
4.78647e-06
4.17253e-06
4.10701e-06
4.03561e-06
3.96025e-06
3.88091e-06
3.80238e-06
3.72817e-06
3.65951e-06
3.59663e-06
3.53942e-06
3.48759e-06
3.44076e-06
3.39845e-06
3.36021e-06
3.32559e-06
3.29413e-06
3.26534e-06
3.23825e-06
1.46888e-08
-1.48122e-08
4.08138e-08
-2.6262e-08
6.78569e-08
-2.71948e-08
9.17552e-08
-2.39978e-08
1.10298e-07
-1.86808e-08
1.22606e-07
-1.24001e-08
1.28221e-07
-5.75858e-09
1.27223e-07
9.04434e-10
1.1986e-07
7.2124e-09
1.07005e-07
1.27619e-08
8.94521e-08
1.73943e-08
6.82491e-08
2.11058e-08
4.40766e-08
2.40025e-08
1.76999e-08
2.62716e-08
-1.05776e-08
2.80932e-08
-4.07619e-08
3.00826e-08
-7.33921e-08
3.24592e-08
-1.08392e-07
3.49175e-08
-1.46121e-07
3.7582e-08
-1.86652e-07
4.04675e-08
-2.30299e-07
4.35175e-08
-2.76993e-07
4.66478e-08
-3.26868e-07
4.9763e-08
-3.79691e-07
5.27863e-08
-4.3542e-07
5.56255e-08
-4.93649e-07
5.81931e-08
-5.54169e-07
6.04122e-08
-6.16443e-07
6.22329e-08
-6.8016e-07
6.36115e-08
-7.44733e-07
6.45272e-08
-8.09818e-07
6.49743e-08
-8.74851e-07
6.498e-08
-9.39538e-07
6.45787e-08
-1.00342e-06
6.38254e-08
-1.0663e-06
6.27714e-08
-1.12785e-06
6.14796e-08
-1.18795e-06
6.00012e-08
-1.24641e-06
5.83947e-08
-1.30321e-06
5.67035e-08
-1.35823e-06
5.4975e-08
-1.41156e-06
5.32385e-08
-1.46313e-06
5.15271e-08
-1.51306e-06
4.98566e-08
-1.56135e-06
4.82482e-08
-1.60813e-06
4.6707e-08
-1.65342e-06
4.52453e-08
-1.69736e-06
4.3861e-08
-1.73996e-06
4.2561e-08
-1.78137e-06
4.1339e-08
-1.82161e-06
4.01976e-08
-1.86081e-06
3.91268e-08
-1.89898e-06
3.81275e-08
-1.93624e-06
3.71895e-08
-1.97261e-06
3.63134e-08
-2.00818e-06
3.54889e-08
-2.04297e-06
3.47175e-08
-2.07705e-06
3.39901e-08
-2.11044e-06
3.33086e-08
-2.1432e-06
3.26647e-08
-2.17535e-06
3.20611e-08
-2.20694e-06
3.14907e-08
-2.23799e-06
3.09568e-08
-2.26854e-06
3.04538e-08
-2.29863e-06
2.99851e-08
-2.32827e-06
2.95461e-08
-2.35752e-06
2.91402e-08
-2.38638e-06
2.87648e-08
-2.4149e-06
2.84224e-08
-2.4431e-06
2.81126e-08
-2.47103e-06
2.78375e-08
-2.4987e-06
2.75981e-08
-2.52619e-06
2.73956e-08
-2.55349e-06
2.72315e-08
-2.58069e-06
2.71037e-08
-2.60777e-06
2.70151e-08
-2.63485e-06
2.6961e-08
-2.66188e-06
2.69457e-08
-2.68897e-06
2.69651e-08
-2.71606e-06
2.70217e-08
-2.7433e-06
2.71033e-08
-2.77059e-06
2.72145e-08
-2.79806e-06
2.73433e-08
-2.82561e-06
2.74921e-08
-2.85337e-06
2.76376e-08
-2.88121e-06
2.7783e-08
-2.90923e-06
2.79071e-08
-2.93727e-06
2.80214e-08
-2.96539e-06
2.81067e-08
-2.99349e-06
2.81671e-08
-3.02152e-06
2.81864e-08
-3.0495e-06
2.81135e-08
-3.07733e-06
2.79307e-08
-3.10486e-06
2.76178e-08
-3.13195e-06
2.71651e-08
-3.15843e-06
2.65513e-08
-3.18413e-06
2.57602e-08
-3.20886e-06
2.47682e-08
-3.23239e-06
2.35593e-08
-3.2545e-06
2.21079e-08
-3.27492e-06
2.03862e-08
-3.29336e-06
1.83577e-08
-3.30949e-06
1.59866e-08
-3.32295e-06
1.32423e-08
-3.33329e-06
1.00456e-08
-3.34002e-06
6.41341e-09
-3.34261e-06
2.22805e-09
-3.34121e-06
-1.71921e-09
-3.33674e-06
-4.80446e-09
-3.32848e-06
-8.52837e-09
-3.31616e-06
-1.25996e-08
-3.29986e-06
-1.6508e-08
-3.27916e-06
-2.09157e-08
-3.25385e-06
-2.54486e-08
-3.22359e-06
-3.04061e-08
-3.18828e-06
-3.53936e-08
-3.14824e-06
-4.01187e-08
-3.10292e-06
-4.53333e-08
-3.05211e-06
-5.08127e-08
-2.99588e-06
-5.6156e-08
-2.93427e-06
-6.1552e-08
-2.86733e-06
-6.69135e-08
-2.79495e-06
-7.24346e-08
-2.71711e-06
-7.78913e-08
-2.63388e-06
-8.32848e-08
-2.54531e-06
-8.85267e-08
-2.45159e-06
-9.36261e-08
-2.35289e-06
-9.85177e-08
-2.24946e-06
-1.032e-07
-2.14155e-06
-1.07611e-07
-2.02949e-06
-1.11741e-07
-1.91359e-06
-1.15535e-07
-1.79423e-06
-1.18982e-07
-1.67179e-06
-1.2204e-07
-1.54669e-06
-1.247e-07
-1.41935e-06
-1.26938e-07
-1.29022e-06
-1.28747e-07
-1.15972e-06
-1.30126e-07
-1.02831e-06
-1.31082e-07
-8.96393e-07
-1.31632e-07
-7.64382e-07
-1.31792e-07
-6.32613e-07
-1.31601e-07
-5.0153e-07
-1.3098e-07
-3.71514e-07
-1.29956e-07
-2.42459e-07
-1.2905e-07
-1.1376e-07
-1.28725e-07
1.56652e-08
-1.29488e-07
1.44709e-07
-1.29117e-07
2.7075e-07
-1.26131e-07
3.92827e-07
-1.22167e-07
5.10498e-07
-1.17768e-07
6.23563e-07
-1.13158e-07
7.31921e-07
-1.08453e-07
8.35548e-07
-1.03717e-07
9.3447e-07
-9.90098e-08
1.02877e-06
-9.43868e-08
1.11855e-06
-8.98519e-08
1.2039e-06
-8.54244e-08
1.28498e-06
-8.11487e-08
1.36195e-06
-7.70351e-08
1.43495e-06
-7.30536e-08
1.50411e-06
-6.92138e-08
1.56959e-06
-6.55237e-08
1.63155e-06
-6.20009e-08
1.69015e-06
-5.86339e-08
1.74553e-06
-5.54041e-08
1.7978e-06
-5.22994e-08
1.8471e-06
-4.93222e-08
1.89354e-06
-4.64542e-08
1.9372e-06
-4.36774e-08
1.97815e-06
-4.09653e-08
2.01641e-06
-3.82792e-08
2.05195e-06
-3.55474e-08
2.0846e-06
-3.26673e-08
2.11406e-06
-2.94662e-08
2.13964e-06
-2.56068e-08
2.16011e-06
-2.04909e-08
2.17184e-06
-1.17664e-08
2.16607e-06
5.7494e-09
2.12118e-06
4.48575e-08
1.12151e-07
2.00902e-06
2.74734e-08
-4.23692e-08
4.66019e-08
-4.54658e-08
5.72052e-08
-3.78579e-08
6.20732e-08
-2.89074e-08
6.25169e-08
-1.91718e-08
5.90605e-08
-8.98111e-09
5.19259e-08
1.32872e-09
4.12976e-08
1.14951e-08
2.71663e-08
2.12953e-08
9.38187e-09
3.05075e-08
-1.22206e-08
3.89477e-08
-3.76887e-08
4.65352e-08
-6.70468e-08
5.33137e-08
-1.00245e-07
5.94329e-08
-1.37314e-07
6.51183e-08
-1.77889e-07
7.06232e-08
-2.21601e-07
7.61271e-08
-2.68415e-07
8.17001e-08
-3.18237e-07
8.73623e-08
-3.70863e-07
9.30664e-08
-4.26094e-07
9.87098e-08
-4.83628e-07
1.04156e-07
-5.43161e-07
1.0926e-07
-6.04278e-07
1.1388e-07
-6.6658e-07
1.17891e-07
-7.29602e-07
1.21189e-07
-7.92934e-07
1.23705e-07
-8.56134e-07
1.25406e-07
-9.18851e-07
1.26287e-07
-9.80722e-07
1.26367e-07
-1.04149e-06
1.25701e-07
-1.10091e-06
1.2437e-07
-1.15885e-06
1.22468e-07
-1.21516e-06
1.201e-07
-1.2698e-06
1.17364e-07
-1.32271e-06
1.14359e-07
-1.37393e-06
1.1117e-07
-1.42344e-06
1.07876e-07
-1.47132e-06
1.04544e-07
-1.51761e-06
1.01232e-07
-1.56239e-06
9.79828e-08
-1.60573e-06
9.48322e-08
-1.64771e-06
9.18034e-08
-1.6884e-06
8.89139e-08
-1.7279e-06
8.61722e-08
-1.76627e-06
8.3584e-08
-1.80359e-06
8.1148e-08
-1.83992e-06
7.88625e-08
-1.87534e-06
7.67207e-08
-1.90989e-06
7.4717e-08
-1.94364e-06
7.28419e-08
-1.97663e-06
7.10881e-08
-2.00892e-06
6.94454e-08
-2.04055e-06
6.7907e-08
-2.07157e-06
6.64631e-08
-2.102e-06
6.51081e-08
-2.13189e-06
6.38338e-08
-2.16127e-06
6.26363e-08
-2.19016e-06
6.15087e-08
-2.2186e-06
6.04485e-08
-2.24662e-06
5.94506e-08
-2.27423e-06
5.85146e-08
-2.30147e-06
5.76367e-08
-2.32836e-06
5.68174e-08
-2.35493e-06
5.60544e-08
-2.38119e-06
5.53496e-08
-2.40719e-06
5.47018e-08
-2.43293e-06
5.41137e-08
-2.45846e-06
5.35849e-08
-2.48379e-06
5.31181e-08
-2.50895e-06
5.2713e-08
-2.53398e-06
5.23711e-08
-2.55888e-06
5.20914e-08
-2.58371e-06
5.18736e-08
-2.60845e-06
5.17149e-08
-2.63317e-06
5.16129e-08
-2.65784e-06
5.15663e-08
-2.68251e-06
5.157e-08
-2.70716e-06
5.16175e-08
-2.73182e-06
5.16988e-08
-2.75647e-06
5.18067e-08
-2.78111e-06
5.19275e-08
-2.80572e-06
5.20479e-08
-2.83029e-06
5.21476e-08
-2.85477e-06
5.22121e-08
-2.87913e-06
5.22213e-08
-2.9033e-06
5.21617e-08
-2.92722e-06
5.20118e-08
-2.95075e-06
5.17599e-08
-2.97384e-06
5.13566e-08
-2.99641e-06
5.07631e-08
-3.01836e-06
4.99372e-08
-3.03954e-06
4.88467e-08
-3.05981e-06
4.74738e-08
-3.07901e-06
4.57824e-08
-3.09697e-06
4.375e-08
-3.11352e-06
4.1339e-08
-3.12849e-06
3.85319e-08
-3.14169e-06
3.52956e-08
-3.15296e-06
3.16188e-08
-3.16215e-06
2.74752e-08
-3.16914e-06
2.28632e-08
-3.17385e-06
1.7773e-08
-3.17621e-06
1.22101e-08
-3.17624e-06
6.19766e-09
-3.174e-06
-2.37372e-10
-3.16901e-06
-6.95195e-09
-3.16017e-06
-1.38459e-08
-3.14764e-06
-2.12557e-08
-3.13125e-06
-2.91541e-08
-3.11049e-06
-3.74239e-08
-3.08535e-06
-4.61799e-08
-3.05557e-06
-5.53433e-08
-3.02108e-06
-6.4966e-08
-2.98168e-06
-7.48641e-08
-2.93692e-06
-8.4914e-08
-2.8869e-06
-9.53768e-08
-2.83161e-06
-1.06081e-07
-2.77086e-06
-1.16869e-07
-2.70455e-06
-1.27819e-07
-2.63265e-06
-1.38817e-07
-2.55522e-06
-1.49893e-07
-2.47226e-06
-1.60908e-07
-2.38377e-06
-1.718e-07
-2.28985e-06
-1.82434e-07
-2.19065e-06
-1.92762e-07
-2.08637e-06
-2.02697e-07
-1.97725e-06
-2.1218e-07
-1.86357e-06
-2.21124e-07
-1.74566e-06
-2.29469e-07
-1.62386e-06
-2.37131e-07
-1.49857e-06
-2.44056e-07
-1.37021e-06
-2.50179e-07
-1.23923e-06
-2.55462e-07
-1.10609e-06
-2.59866e-07
-9.71261e-07
-2.63378e-07
-8.35216e-07
-2.65983e-07
-6.98433e-07
-2.67705e-07
-5.61368e-07
-2.68565e-07
-4.24459e-07
-2.68608e-07
-2.88079e-07
-2.6791e-07
-1.52325e-07
-2.66697e-07
-1.72187e-08
-2.65043e-07
1.16535e-07
-2.62812e-07
2.47706e-07
-2.59914e-07
3.74479e-07
-2.56299e-07
4.96605e-07
-2.51282e-07
6.15062e-07
-2.4464e-07
7.2983e-07
-2.36985e-07
8.40732e-07
-2.28729e-07
9.4763e-07
-2.20109e-07
1.05042e-06
-2.11304e-07
1.14907e-06
-2.02419e-07
1.24357e-06
-1.93563e-07
1.33394e-06
-1.8481e-07
1.42024e-06
-1.76209e-07
1.50256e-06
-1.67788e-07
1.58097e-06
-1.59606e-07
1.65557e-06
-1.5168e-07
1.72649e-06
-1.44013e-07
1.79386e-06
-1.36617e-07
1.85781e-06
-1.29504e-07
1.91846e-06
-1.22685e-07
1.97596e-06
-1.16154e-07
2.03041e-06
-1.09882e-07
2.08195e-06
-1.03855e-07
2.13067e-06
-9.80642e-08
2.17669e-06
-9.24827e-08
2.22007e-06
-8.70711e-08
2.26088e-06
-8.17845e-08
2.29913e-06
-7.6539e-08
2.33477e-06
-7.12055e-08
2.36768e-06
-6.55807e-08
2.39755e-06
-5.93475e-08
2.42383e-06
-5.19032e-08
2.44553e-06
-4.22123e-08
2.46142e-06
-2.76736e-08
2.47087e-06
-3.72211e-09
2.47256e-06
4.31516e-08
1.32717e-07
2.45198e-06
1.66766e-08
-5.91121e-08
2.27643e-08
-5.16067e-08
2.2389e-08
-3.75231e-08
1.75519e-08
-2.40968e-08
9.28424e-09
-1.09341e-08
-1.86326e-09
2.14373e-09
-1.56753e-08
1.51133e-08
-3.20841e-08
2.78823e-08
-5.11521e-08
4.03366e-08
-7.30091e-08
5.23436e-08
-9.78655e-08
6.37783e-08
-1.25914e-07
7.45635e-08
-1.5732e-07
8.46948e-08
-1.92145e-07
9.42386e-08
-2.30359e-07
1.03308e-07
-2.71779e-07
1.12024e-07
-3.16156e-07
1.20481e-07
-3.63192e-07
1.28718e-07
-4.12573e-07
1.3672e-07
-4.63935e-07
1.44411e-07
-5.16922e-07
1.51674e-07
-5.71151e-07
1.58368e-07
-6.26262e-07
1.64348e-07
-6.81881e-07
1.69483e-07
-7.37681e-07
1.73667e-07
-7.93338e-07
1.76828e-07
-8.48588e-07
1.7893e-07
-9.03172e-07
1.79971e-07
-9.569e-07
1.79988e-07
-1.00961e-06
1.7906e-07
-1.06122e-06
1.77285e-07
-1.11165e-06
1.74776e-07
-1.16086e-06
1.71654e-07
-1.20882e-06
1.6804e-07
-1.25554e-06
1.64051e-07
-1.301e-06
1.59798e-07
-1.34523e-06
1.55378e-07
-1.38825e-06
1.50876e-07
-1.4301e-06
1.46366e-07
-1.4708e-06
1.41908e-07
-1.51039e-06
1.37552e-07
-1.54891e-06
1.33333e-07
-1.5864e-06
1.29278e-07
-1.62291e-06
1.25405e-07
-1.65848e-06
1.21723e-07
-1.69316e-06
1.18238e-07
-1.72698e-06
1.14949e-07
-1.75999e-06
1.11852e-07
-1.79223e-06
1.08941e-07
-1.82374e-06
1.06208e-07
-1.85457e-06
1.03642e-07
-1.88473e-06
1.01233e-07
-1.91428e-06
9.8971e-08
-1.94325e-06
9.68454e-08
-1.97166e-06
9.48463e-08
-1.99954e-06
9.29645e-08
-2.02693e-06
9.11916e-08
-2.05385e-06
8.95205e-08
-2.08032e-06
8.79445e-08
-2.10636e-06
8.64587e-08
-2.132e-06
8.50585e-08
-2.15727e-06
8.37411e-08
-2.18217e-06
8.25039e-08
-2.20673e-06
8.13459e-08
-2.23098e-06
8.02662e-08
-2.25494e-06
7.92653e-08
-2.27861e-06
7.83434e-08
-2.30204e-06
7.75023e-08
-2.32523e-06
7.6743e-08
-2.34821e-06
7.60669e-08
-2.37101e-06
7.54746e-08
-2.39364e-06
7.49667e-08
-2.41612e-06
7.45423e-08
-2.43848e-06
7.41993e-08
-2.46073e-06
7.39347e-08
-2.4829e-06
7.37447e-08
-2.50499e-06
7.36238e-08
-2.52702e-06
7.35649e-08
-2.549e-06
7.35576e-08
-2.57093e-06
7.35891e-08
-2.5928e-06
7.36455e-08
-2.61462e-06
7.37088e-08
-2.63636e-06
7.37582e-08
-2.65802e-06
7.37694e-08
-2.67956e-06
7.37184e-08
-2.70095e-06
7.3577e-08
-2.72213e-06
7.33188e-08
-2.74304e-06
7.29152e-08
-2.76359e-06
7.23306e-08
-2.78371e-06
7.15255e-08
-2.80333e-06
7.04388e-08
-2.82239e-06
6.9022e-08
-2.84076e-06
6.72398e-08
-2.85832e-06
6.50479e-08
-2.87494e-06
6.24155e-08
-2.89048e-06
5.92963e-08
-2.9048e-06
5.56611e-08
-2.91776e-06
5.14702e-08
-2.92918e-06
4.67018e-08
-2.93894e-06
4.13277e-08
-2.94687e-06
3.53312e-08
-2.95281e-06
2.86991e-08
-2.9566e-06
2.14207e-08
-2.95806e-06
1.34987e-08
-2.95697e-06
4.92725e-09
-2.95309e-06
-4.28678e-09
-2.94608e-06
-1.41364e-08
-2.9355e-06
-2.45744e-08
-2.92122e-06
-3.56764e-08
-2.90303e-06
-4.74534e-08
-2.88067e-06
-5.98978e-08
-2.85395e-06
-7.29871e-08
-2.82267e-06
-8.67021e-08
-2.78667e-06
-1.01015e-07
-2.74576e-06
-1.15827e-07
-2.69967e-06
-1.31027e-07
-2.64837e-06
-1.46693e-07
-2.59175e-06
-1.62676e-07
-2.5297e-06
-1.7889e-07
-2.46213e-06
-1.9536e-07
-2.38902e-06
-2.11941e-07
-2.31037e-06
-2.28564e-07
-2.22622e-06
-2.45106e-07
-2.13658e-06
-2.61447e-07
-2.04158e-06
-2.77435e-07
-1.94134e-06
-2.9295e-07
-1.83609e-06
-3.07878e-07
-1.72607e-06
-3.22097e-07
-1.61158e-06
-3.35495e-07
-1.49296e-06
-3.47955e-07
-1.37059e-06
-3.59366e-07
-1.24486e-06
-3.69628e-07
-1.11624e-06
-3.78655e-07
-9.85175e-07
-3.86376e-07
-8.52154e-07
-3.92743e-07
-7.17664e-07
-3.9773e-07
-5.82199e-07
-4.01326e-07
-4.46235e-07
-4.0356e-07
-3.1024e-07
-4.04474e-07
-1.74579e-07
-4.04195e-07
-3.95852e-08
-4.0285e-07
9.41966e-08
-4.0043e-07
2.26003e-07
-3.96815e-07
3.55172e-07
-3.9195e-07
4.8113e-07
-3.85854e-07
6.03296e-07
-3.78447e-07
7.21534e-07
-3.69513e-07
8.36039e-07
-3.59135e-07
9.46761e-07
-3.47705e-07
1.0536e-06
-3.35564e-07
1.15646e-06
-3.22973e-07
1.25529e-06
-3.10133e-07
1.35007e-06
-2.97198e-07
1.4408e-06
-2.84296e-07
1.52753e-06
-2.71535e-07
1.6103e-06
-2.58986e-07
1.68921e-06
-2.46699e-07
1.76434e-06
-2.34733e-07
1.8358e-06
-2.23141e-07
1.90372e-06
-2.11939e-07
1.96825e-06
-2.01141e-07
2.02949e-06
-1.90747e-07
2.08758e-06
-1.80773e-07
2.14264e-06
-1.71212e-07
2.1948e-06
-1.62037e-07
2.24417e-06
-1.53224e-07
2.29086e-06
-1.44754e-07
2.33497e-06
-1.36587e-07
2.37658e-06
-1.28673e-07
2.41574e-06
-1.2094e-07
2.45247e-06
-1.13269e-07
2.48674e-06
-1.05473e-07
2.51844e-06
-9.72716e-08
2.54731e-06
-8.82232e-08
2.57296e-06
-7.75539e-08
2.5947e-06
-6.39521e-08
2.61169e-06
-4.46723e-08
2.62323e-06
-1.52671e-08
2.6312e-06
3.51839e-08
1.25005e-07
2.63891e-06
2.22067e-09
-6.13917e-08
-3.72655e-09
-4.57021e-08
-1.2706e-08
-2.85751e-08
-2.41861e-08
-1.26371e-08
-3.78688e-08
2.7266e-09
-5.35791e-08
1.78381e-08
-7.12835e-08
3.27979e-08
-9.10133e-08
4.75974e-08
-1.12869e-07
6.21738e-08
-1.36977e-07
7.64371e-08
-1.63508e-07
9.02913e-08
-1.92615e-07
1.03656e-07
-2.24423e-07
1.16485e-07
-2.58964e-07
1.28767e-07
-2.96188e-07
1.40514e-07
-3.35928e-07
1.51751e-07
-3.7795e-07
1.62485e-07
-4.21943e-07
1.72698e-07
-4.67574e-07
1.82333e-07
-5.14478e-07
1.91302e-07
-5.62312e-07
1.9949e-07
-6.10732e-07
2.06776e-07
-6.59444e-07
2.13041e-07
-7.08165e-07
2.1819e-07
-7.56672e-07
2.22154e-07
-8.04761e-07
2.24901e-07
-8.52286e-07
2.26435e-07
-8.99126e-07
2.26794e-07
-9.45211e-07
2.26052e-07
-9.90477e-07
2.2431e-07
-1.0349e-06
2.21684e-07
-1.07844e-06
2.18302e-07
-1.1211e-06
2.14292e-07
-1.16285e-06
2.09781e-07
-1.20371e-06
2.0489e-07
-1.24366e-06
1.99731e-07
-1.28271e-06
1.94407e-07
-1.32085e-06
1.89007e-07
-1.35811e-06
1.83607e-07
-1.39449e-06
1.78272e-07
-1.43e-06
1.7305e-07
-1.46467e-06
1.67983e-07
-1.4985e-06
1.63098e-07
-1.53153e-06
1.58415e-07
-1.56377e-06
1.53948e-07
-1.59525e-06
1.49703e-07
-1.626e-06
1.45681e-07
-1.65604e-06
1.41878e-07
-1.6854e-06
1.38289e-07
-1.71412e-06
1.34905e-07
-1.74221e-06
1.31716e-07
-1.76971e-06
1.28712e-07
-1.79664e-06
1.25881e-07
-1.82302e-06
1.23212e-07
-1.84889e-06
1.20693e-07
-1.87427e-06
1.18315e-07
-1.89917e-06
1.16068e-07
-1.92361e-06
1.13944e-07
-1.94763e-06
1.11935e-07
-1.97123e-06
1.10035e-07
-1.99444e-06
1.0824e-07
-2.01727e-06
1.06547e-07
-2.03975e-06
1.04951e-07
-2.06188e-06
1.03454e-07
-2.0837e-06
1.02053e-07
-2.10521e-06
1.00749e-07
-2.12644e-06
9.95441e-08
-2.1474e-06
9.8439e-08
-2.16812e-06
9.74357e-08
-2.18862e-06
9.65357e-08
-2.20891e-06
9.574e-08
-2.22902e-06
9.50487e-08
-2.24896e-06
9.4461e-08
-2.26876e-06
9.39749e-08
-2.28843e-06
9.3586e-08
-2.30801e-06
9.3289e-08
-2.32748e-06
9.30768e-08
-2.34689e-06
9.29391e-08
-2.36622e-06
9.28629e-08
-2.38549e-06
9.2832e-08
-2.4047e-06
9.28277e-08
-2.42384e-06
9.28271e-08
-2.44292e-06
9.28042e-08
-2.4619e-06
9.2729e-08
-2.48078e-06
9.25695e-08
-2.49952e-06
9.22906e-08
-2.51808e-06
9.18549e-08
-2.53639e-06
9.12228e-08
-2.5544e-06
9.03541e-08
-2.57203e-06
8.91849e-08
-2.58923e-06
8.76686e-08
-2.60593e-06
8.57372e-08
-2.62203e-06
8.33431e-08
-2.63741e-06
8.0434e-08
-2.65197e-06
7.69647e-08
-2.66556e-06
7.28828e-08
-2.67806e-06
6.81463e-08
-2.68933e-06
6.2709e-08
-2.6992e-06
5.65368e-08
-2.70752e-06
4.95924e-08
-2.71412e-06
4.18457e-08
-2.7188e-06
3.32717e-08
-2.72136e-06
2.38465e-08
-2.72158e-06
1.35597e-08
-2.7192e-06
2.39257e-09
-2.71398e-06
-9.66354e-09
-2.70563e-06
-2.2621e-08
-2.69388e-06
-3.64457e-08
-2.67852e-06
-5.11526e-08
-2.65933e-06
-6.67425e-08
-2.63608e-06
-8.3229e-08