/*--------------------------------*- C++ -*----------------------------------*\
| =========                 |                                                 |
| \\      /  F ield         | OpenFOAM: The Open Source CFD Toolbox           |
|  \\    /   O peration     | Version:  2212                                  |
|   \\  /    A nd           | Website:  www.openfoam.com                      |
|    \\/     M anipulation  |                                                 |
\*---------------------------------------------------------------------------*/
FoamFile
{
    version     2.0;
    format      ascii;
    arch        "LSB;label=32;scalar=64";
    class       volVectorField;
    location    "100";
    object      U;
}
// * * * * * * * * * * * * * * * * * * * * * * * * * * * * * * * * * * * * * //

dimensions      [0 1 -1 0 0 0 0];

internalField   nonuniform List<vector> 
12225
(
(9.84122 -0.956294 0)
(9.59261 -0.8879 0)
(9.31778 -0.594485 0)
(9.01511 -0.37002 0)
(8.72639 -0.226013 0)
(8.46805 -0.137919 0)
(8.24127 -0.0845541 0)
(8.04339 -0.0517129 0)
(7.8719 -0.0313367 0)
(7.72347 -0.0187264 0)
(7.59502 -0.0108128 0)
(7.48354 -0.00591044 0)
(7.38683 -0.00295705 0)
(7.30302 -0.00131426 0)
(7.23048 -0.000536055 0)
(7.17031 -0.00101904 0)
(7.11342 0.00157938 0)
(7.08926 -0.0180601 0)
(10.0721 0.255827 0)
(10.1868 0.418344 0)
(10.2285 0.384097 0)
(10.2298 0.310363 0)
(10.2116 0.245626 0)
(10.1797 0.195357 0)
(10.1339 0.157579 0)
(10.0766 0.129539 0)
(10.0115 0.108655 0)
(9.94222 0.0928724 0)
(9.87101 0.0806391 0)
(9.79967 0.070952 0)
(9.7293 0.0630567 0)
(9.66105 0.056463 0)
(9.59536 0.0505158 0)
(9.53318 0.04561 0)
(9.47511 0.0386573 0)
(9.42306 0.0379408 0)
(10.0032 0.0599516 0)
(10.0309 0.0482533 0)
(10.0615 0.00995747 0)
(10.0899 -8.5563e-05 0)
(10.1154 0.00805622 0)
(10.138 0.0192793 0)
(10.1552 0.0288287 0)
(10.1664 0.036267 0)
(10.1724 0.0417698 0)
(10.1742 0.0455537 0)
(10.1726 0.0479316 0)
(10.1681 0.0491933 0)
(10.1615 0.0495628 0)
(10.1531 0.049173 0)
(10.1436 0.0480357 0)
(10.1335 0.0461219 0)
(10.1235 0.0430579 0)
(10.1126 0.0374004 0)
(9.99715 0.00990215 0)
(10.009 0.0260594 0)
(10.0342 0.0382385 0)
(10.0555 0.0532951 0)
(10.0724 0.06479 0)
(10.088 0.0700901 0)
(10.102 0.0711908 0)
(10.1142 0.070377 0)
(10.1246 0.0687278 0)
(10.1338 0.0666655 0)
(10.142 0.0643868 0)
(10.1492 0.0620063 0)
(10.1556 0.0595311 0)
(10.1613 0.0569235 0)
(10.1665 0.0540233 0)
(10.1714 0.0506523 0)
(10.176 0.0462556 0)
(10.1797 0.0396626 0)
(9.99907 0.0067941 0)
(10.0082 0.0342595 0)
(10.028 0.0482674 0)
(10.0438 0.0547697 0)
(10.0561 0.0581904 0)
(10.0682 0.059317 0)
(10.0799 0.0590247 0)
(10.0905 0.05821 0)
(10.1001 0.0572296 0)
(10.1089 0.0561131 0)
(10.1173 0.0548482 0)
(10.1251 0.0534216 0)
(10.1326 0.0517969 0)
(10.1397 0.0499009 0)
(10.1466 0.0475913 0)
(10.1534 0.0446752 0)
(10.1598 0.0407814 0)
(10.1655 0.0355227 0)
(10.0002 0.00922482 0)
(10.008 0.0333515 0)
(10.0237 0.0439701 0)
(10.037 0.0482475 0)
(10.0481 0.0516517 0)
(10.0589 0.0539859 0)
(10.0696 0.0549448 0)
(10.0793 0.0550213 0)
(10.0881 0.0546049 0)
(10.0963 0.0538216 0)
(10.1041 0.0527203 0)
(10.1116 0.0513349 0)
(10.1188 0.0496641 0)
(10.1257 0.0476619 0)
(10.1325 0.0452215 0)
(10.139 0.0421938 0)
(10.1452 0.0383779 0)
(10.1507 0.0335982 0)
(10.0003 0.00910304 0)
(10.007 0.0286842 0)
(10.0202 0.0387651 0)
(10.0324 0.04384 0)
(10.0428 0.047877 0)
(10.0529 0.0506066 0)
(10.0628 0.0517651 0)
(10.0719 0.0518981 0)
(10.0802 0.0514666 0)
(10.0881 0.05064 0)
(10.0955 0.0494817 0)
(10.1026 0.0480286 0)
(10.1095 0.0462843 0)
(10.1161 0.0442076 0)
(10.1225 0.0417164 0)
(10.1286 0.0387013 0)
(10.1343 0.0350548 0)
(10.1394 0.0307042 0)
(10.0004 0.00811786 0)
(10.006 0.0246209 0)
(10.0172 0.0347301 0)
(10.0285 0.0403084 0)
(10.0384 0.0443118 0)
(10.0479 0.0469404 0)
(10.0572 0.0481205 0)
(10.0659 0.0483214 0)
(10.074 0.0479521 0)
(10.0815 0.0471735 0)
(10.0887 0.0460474 0)
(10.0956 0.0446081 0)
(10.1022 0.0428634 0)
(10.1085 0.0407826 0)
(10.1146 0.0383104 0)
(10.1203 0.0353773 0)
(10.1256 0.0319376 0)
(10.1303 0.0279866 0)
(10.0004 0.0071785 0)
(10.0052 0.0214114 0)
(10.0147 0.031089 0)
(10.0249 0.0366916 0)
(10.0343 0.0405038 0)
(10.0433 0.0430352 0)
(10.0521 0.0442882 0)
(10.0605 0.0446016 0)
(10.0684 0.0443189 0)
(10.0757 0.0436003 0)
(10.0827 0.0425133 0)
(10.0894 0.0410955 0)
(10.0958 0.039362 0)
(10.1019 0.0372974 0)
(10.1076 0.0348717 0)
(10.113 0.0320501 0)
(10.118 0.0288275 0)
(10.1224 0.0252358 0)
(10.0004 0.00633543 0)
(10.0045 0.0186214 0)
(10.0126 0.0275408 0)
(10.0218 0.0329936 0)
(10.0306 0.0366449 0)
(10.0391 0.0390899 0)
(10.0474 0.0403841 0)
(10.0555 0.0407744 0)
(10.0631 0.0405523 0)
(10.0702 0.039879 0)
(10.077 0.0388272 0)
(10.0835 0.0374379 0)
(10.0897 0.0357328 0)
(10.0955 0.0337113 0)
(10.1011 0.0313641 0)
(10.1062 0.0286838 0)
(10.1108 0.0256887 0)
(10.115 0.0224285 0)
(10.0004 0.00554145 0)
(10.0039 0.0161076 0)
(10.0108 0.0241511 0)
(10.019 0.029346 0)
(10.0272 0.0328169 0)
(10.0352 0.0351336 0)
(10.0431 0.0364066 0)
(10.0507 0.0368288 0)
(10.058 0.0366434 0)
(10.065 0.0360041 0)
(10.0715 0.0349866 0)
(10.0778 0.0336342 0)
(10.0838 0.0319747 0)
(10.0894 0.03002 0)
(10.0947 0.027777 0)
(10.0996 0.025257 0)
(10.104 0.022492 0)
(10.108 0.0195378 0)
(10.0003 0.00483276 0)
(10.0034 0.013993 0)
(10.0094 0.0212026 0)
(10.0168 0.0260662 0)
(10.0244 0.0293268 0)
(10.0319 0.0314892 0)
(10.0394 0.0327006 0)
(10.0467 0.0331204 0)
(10.0537 0.0329509 0)
(10.0604 0.0323339 0)
(10.0668 0.0313457 0)
(10.0728 0.0300321 0)
(10.0786 0.0284256 0)
(10.084 0.0265481 0)
(10.089 0.0244169 0)
(10.0937 0.0220548 0)
(10.0979 0.0194991 0)
(10.1017 0.0168065 0)
(10.0003 0.00416851 0)
(10.003 0.012052 0)
(10.0082 0.018416 0)
(10.0149 0.022867 0)
(10.0219 0.0258784 0)
(10.029 0.027864 0)
(10.036 0.0289848 0)
(10.043 0.0293775 0)
(10.0497 0.0292086 0)
(10.0561 0.0286062 0)
(10.0622 0.0276457 0)
(10.0681 0.0263743 0)
(10.0736 0.0248282 0)
(10.0788 0.0230362 0)
(10.0836 0.0210242 0)
(10.0881 0.0188211 0)
(10.0922 0.0164661 0)
(10.0958 0.0140124 0)
(10.0003 0.00347671 0)
(10.0026 0.0100282 0)
(10.0071 0.0154266 0)
(10.013 0.0193264 0)
(10.0194 0.0219943 0)
(10.026 0.0237385 0)
(10.0326 0.0247164 0)
(10.0391 0.0250445 0)
(10.0455 0.0248546 0)
(10.0516 0.0242572 0)
(10.0575 0.0233251 0)
(10.0631 0.0221053 0)
(10.0683 0.0206361 0)
(10.0733 0.0189505 0)
(10.0779 0.0170806 0)
(10.0821 0.0150591 0)
(10.086 0.012924 0)
(10.0895 0.0107217 0)
(10.0002 0.00275354 0)
(10.0022 0.00791802 0)
(10.0061 0.0122449 0)
(10.0113 0.0154524 0)
(10.0171 0.0176644 0)
(10.0231 0.0190875 0)
(10.0292 0.0198575 0)
(10.0353 0.0200723 0)
(10.0413 0.0198312 0)
(10.0471 0.0192243 0)
(10.0526 0.0183177 0)
(10.0579 0.017158 0)
(10.0629 0.0157817 0)
(10.0676 0.0142237 0)
(10.0719 0.0125172 0)
(10.076 0.0106967 0)
(10.0796 0.00879596 0)
(10.083 0.0068536 0)
(10.0002 0.00199958 0)
(10.0019 0.00572613 0)
(10.0052 0.00888417 0)
(10.0097 0.0112579 0)
(10.0149 0.0128871 0)
(10.0204 0.0138937 0)
(10.026 0.0143788 0)
(10.0317 0.0144192 0)
(10.0372 0.0140869 0)
(10.0427 0.0134491 0)
(10.0479 0.0125607 0)
(10.0528 0.0114645 0)
(10.0575 0.0101942 0)
(10.062 0.00878132 0)
(10.0661 0.00725663 0)
(10.0699 0.00565123 0)
(10.0734 0.00399489 0)
(10.0766 0.00231584 0)
(10.0002 0.00121393 0)
(10.0016 0.00344377 0)
(10.0045 0.00533538 0)
(10.0084 0.00673643 0)
(10.0131 0.0076473 0)
(10.018 0.008128 0)
(10.0232 0.00824065 0)
(10.0284 0.00803667 0)
(10.0336 0.00756358 0)
(10.0387 0.00686541 0)
(10.0436 0.00598214 0)
(10.0482 0.00494691 0)
(10.0527 0.00378818 0)
(10.0568 0.00253054 0)
(10.0607 0.00119895 0)
(10.0643 -0.000182869 0)
(10.0677 -0.00159108 0)
(10.0708 -0.00300721 0)
(10.0002 0.000382451 0)
(10.0014 0.00102483 0)
(10.004 0.00153353 0)
(10.0075 0.00181735 0)
(10.0117 0.00186559 0)
(10.0163 0.00169785 0)
(10.0211 0.00133848 0)
(10.026 0.000810617 0)
(10.0308 0.000137591 0)
(10.0356 -0.00065871 0)
(10.0402 -0.00155777 0)
(10.0446 -0.00254068 0)
(10.0488 -0.00358986 0)
(10.0527 -0.00468942 0)
(10.0564 -0.00582372 0)
(10.0599 -0.00697746 0)
(10.0631 -0.00813546 0)
(10.0661 -0.00928739 0)
(10.0001 -0.000536395 0)
(10.0013 -0.00164694 0)
(10.0037 -0.00268856 0)
(10.0071 -0.0036865 0)
(10.0111 -0.00464629 0)
(10.0155 -0.00558193 0)
(10.0201 -0.00650846 0)
(10.0247 -0.00743456 0)
(10.0294 -0.00836238 0)
(10.034 -0.00929381 0)
(10.0384 -0.01023 0)
(10.0426 -0.011171 0)
(10.0467 -0.0121143 0)
(10.0505 -0.0130568 0)
(10.0541 -0.0139941 0)
(10.0574 -0.0149216 0)
(10.0605 -0.0158333 0)
(10.0634 -0.0167275 0)
(10.0002 -0.00140397 0)
(10.0014 -0.0041728 0)
(10.0039 -0.00669358 0)
(10.0074 -0.00890605 0)
(10.0116 -0.0108065 0)
(10.0161 -0.0124512 0)
(10.0208 -0.0138975 0)
(10.0255 -0.0151802 0)
(10.0302 -0.0163284 0)
(10.0348 -0.01737 0)
(10.0392 -0.0183302 0)
(10.0435 -0.019226 0)
(10.0475 -0.0200697 0)
(10.0513 -0.0208689 0)
(10.0548 -0.0216304 0)
(10.0582 -0.022358 0)
(10.0613 -0.0230547 0)
(10.0641 -0.0237238 0)
(10.0002 -0.00213749 0)
(10.0015 -0.00634175 0)
(10.0043 -0.0101496 0)
(10.0082 -0.0133537 0)
(10.0127 -0.0159686 0)
(10.0175 -0.0181459 0)
(10.0224 -0.0199845 0)
(10.0273 -0.0215245 0)
(10.0322 -0.0228112 0)
(10.0369 -0.0239011 0)
(10.0414 -0.0248443 0)
(10.0458 -0.0256748 0)
(10.0498 -0.0264171 0)
(10.0537 -0.0270882 0)
(10.0573 -0.0277029 0)
(10.0606 -0.0282718 0)
(10.0638 -0.0288027 0)
(10.0667 -0.0293034 0)
(10.0002 -0.00281465 0)
(10.0017 -0.00844755 0)
(10.0048 -0.013572 0)
(10.0093 -0.017677 0)
(10.0143 -0.0208492 0)
(10.0195 -0.0234219 0)
(10.0247 -0.0255497 0)
(10.03 -0.0272743 0)
(10.0351 -0.0286545 0)
(10.04 -0.0297674 0)
(10.0447 -0.0306751 0)
(10.0491 -0.0314241 0)
(10.0533 -0.0320493 0)
(10.0572 -0.0325806 0)
(10.0608 -0.0330392 0)
(10.0642 -0.0334435 0)
(10.0674 -0.0338033 0)
(10.0703 -0.0341284 0)
(10.0001 -0.0034167 0)
(10.0017 -0.0105297 0)
(10.0054 -0.0169808 0)
(10.0107 -0.0218997 0)
(10.0164 -0.0256008 0)
(10.022 -0.0285397 0)
(10.0276 -0.0308449 0)
(10.0332 -0.032603 0)
(10.0386 -0.0339578 0)
(10.0437 -0.035026 0)
(10.0486 -0.035872 0)
(10.0532 -0.0365396 0)
(10.0574 -0.0370687 0)
(10.0614 -0.0374939 0)
(10.0652 -0.0378421 0)
(10.0686 -0.0381321 0)
(10.0718 -0.0383771 0)
(10.0748 -0.0385891 0)
(10.0001 -0.00389937 0)
(10.0016 -0.0129965 0)
(10.006 -0.0204896 0)
(10.0123 -0.0256138 0)
(10.0186 -0.0297344 0)
(10.0247 -0.0332632 0)
(10.0308 -0.0359315 0)
(10.0367 -0.0377685 0)
(10.0424 -0.0390408 0)
(10.0477 -0.0399507 0)
(10.0528 -0.0405964 0)
(10.0575 -0.0410408 0)
(10.0619 -0.0413412 0)
(10.066 -0.0415446 0)
(10.0698 -0.0416851 0)
(10.0734 -0.0417839 0)
(10.0766 -0.0418542 0)
(10.0797 -0.0418964 0)
(9.9998 -0.00357117 0)
(10.0011 -0.0166327 0)
(10.0069 -0.0256547 0)
(10.014 -0.0298779 0)
(10.0205 -0.0332471 0)
(10.0269 -0.036753 0)
(10.0337 -0.0397411 0)
(10.0404 -0.0419757 0)
(10.0466 -0.0436141 0)
(10.0523 -0.0448051 0)
(10.0577 -0.045631 0)
(10.0628 -0.0461656 0)
(10.0674 -0.0464844 0)
(10.0718 -0.0466514 0)
(10.0757 -0.0467141 0)
(10.0794 -0.0467062 0)
(10.0829 -0.0466524 0)
(10.0861 -0.0465665 0)
(9.99829 -1.64508e-05 0)
(9.99795 -0.0176818 0)
(10.0068 -0.0316046 0)
(10.0161 -0.0377299 0)
(10.0231 -0.0404659 0)
(10.03 -0.0420551 0)
(10.0374 -0.0430533 0)
(10.0449 -0.0437951 0)
(10.0519 -0.0444436 0)
(10.0585 -0.0450049 0)
(10.0646 -0.0454472 0)
(10.0703 -0.0457819 0)
(10.0756 -0.0460324 0)
(10.0804 -0.0462259 0)
(10.0849 -0.046376 0)
(10.089 -0.0464996 0)
(10.0928 -0.0466004 0)
(10.0962 -0.0466501 0)
(9.99413 0.00276456 0)
(9.98993 -0.00764535 0)
(10.0031 -0.0229329 0)
(10.0184 -0.0397804 0)
(10.03 -0.0532019 0)
(10.04 -0.0610038 0)
(10.0497 -0.0645694 0)
(10.0587 -0.0658499 0)
(10.067 -0.0659741 0)
(10.0747 -0.0653871 0)
(10.0819 -0.0643696 0)
(10.0885 -0.0631117 0)
(10.0945 -0.0617776 0)
(10.1 -0.0604476 0)
(10.1049 -0.0591859 0)
(10.1093 -0.0580223 0)
(10.1134 -0.0569831 0)
(10.1171 -0.0560213 0)
(9.9942 -0.0305159 0)
(9.99523 -0.0134897 0)
(10.0085 0.0214599 0)
(10.0271 0.0319382 0)
(10.0468 0.0240415 0)
(10.0665 0.0114726 0)
(10.0846 -0.000271467 0)
(10.1002 -0.0105118 0)
(10.1133 -0.0191778 0)
(10.1243 -0.0262783 0)
(10.1334 -0.031907 0)
(10.1407 -0.0363077 0)
(10.1463 -0.0397112 0)
(10.1504 -0.0423337 0)
(10.1533 -0.0443379 0)
(10.1549 -0.0458943 0)
(10.1557 -0.0471321 0)
(10.1555 -0.0481994 0)
(10.0368 -0.209418 0)
(10.1083 -0.365921 0)
(10.1423 -0.352779 0)
(10.1567 -0.298083 0)
(10.1695 -0.247681 0)
(10.1817 -0.206862 0)
(10.1881 -0.174443 0)
(10.1863 -0.149098 0)
(10.1768 -0.129397 0)
(10.1612 -0.113888 0)
(10.1404 -0.101508 0)
(10.1158 -0.0914982 0)
(10.0881 -0.0833254 0)
(10.0582 -0.0765817 0)
(10.027 -0.0709867 0)
(9.99484 -0.0663609 0)
(9.96236 -0.0625524 0)
(9.93018 -0.0598673 0)
(9.92866 0.765528 0)
(9.83918 0.742056 0)
(9.70519 0.524414 0)
(9.52607 0.348754 0)
(9.33141 0.227653 0)
(9.13998 0.14694 0)
(8.95795 0.0935269 0)
(8.7878 0.0579234 0)
(8.63093 0.0340513 0)
(8.48798 0.0180283 0)
(8.3583 0.00735709 0)
(8.2411 0.000371526 0)
(8.1352 -0.00418507 0)
(8.03955 -0.00704593 0)
(7.95302 -0.00873049 0)
(7.87464 -0.00967478 0)
(7.80306 -0.0101615 0)
(7.73791 -0.0107791 0)
(0.00615342 -0.0102123 -7.86828e-19)
(0.0255051 -0.029357 5.23236e-19)
(0.0480326 -0.037064 0)
(0.0710302 -0.036214 0)
(0.0905752 -0.0300235 0)
(0.104662 -0.0213106 -2.65375e-19)
(0.112806 -0.011722 0)
(0.115242 -0.00210512 0)
(0.111385 0.00686882 0)
(0.102112 0.0145832 0)
(0.0883194 0.0208004 2.56035e-19)
(0.0708996 0.0254764 0)
(0.0506311 0.0287698 0)
(0.0280866 0.0310885 0)
(0.00365052 0.0329204 0)
(-0.0224965 0.0343264 3.1185e-19)
(-0.0505011 0.035432 0)
(-0.0806498 0.0366294 0)
(-0.113138 0.038116 0)
(-0.148141 0.0399247 0)
(-0.185851 0.0419892 0)
(-0.226388 0.0442187 0)
(-0.269747 0.0465099 0)
(-0.315905 0.0488071 1.36203e-19)
(-0.364769 0.0510292 -1.24809e-19)
(-0.416126 0.0530862 1.14825e-19)
(-0.469699 0.0548941 1.06057e-19)
(-0.52515 0.0563904 0)
(-0.582105 0.057518 0)
(-0.640157 0.0582512 -8.57039e-20)
(-0.698887 0.0585722 -8.04941e-20)
(-0.757879 0.0584946 0)
(-0.81675 0.0580388 0)
(-0.875161 0.0572464 -6.82978e-20)
(-0.932816 0.0561596 0)
(-0.98947 0.0548341 0)
(-1.04493 0.0533179 5.98114e-20)
(-1.09906 0.0516675 0)
(-1.15174 0.0499266 5.55516e-20)
(-1.20294 0.0481424 1.07467e-19)
(-1.25263 0.0463455 0)
(-1.30081 0.0445695 0)
(-1.34752 0.0428316 0)
(-1.39281 0.0411528 0)
(-1.43672 0.039539 0)
(-1.47934 0.0380022 9.14263e-20)
(-1.52072 0.0365408 8.94151e-20)
(-1.56095 0.0351615 8.75326e-20)
(-1.60008 0.0338582 0)
(-1.6382 0.0326326 -8.40845e-20)
(-1.67538 0.0314741 0)
(-1.71166 0.0303837 8.09746e-20)
(-1.74713 0.0293513 7.95202e-20)
(-1.78183 0.0283773 0)
(-1.81581 0.0274514 0)
(-1.84913 0.0265753 0)
(-1.88182 0.0257404 7.4193e-20)
(-1.91393 0.0249492 0)
(-1.94549 0.024193 0)
(-1.97654 0.0234763 0)
(-2.0071 0.0227925 0)
(-2.03722 0.0221468 0)
(-2.06692 0.0215333 0)
(-2.09622 0.0209577 0)
(-2.12517 0.0204154 0)
(-2.15378 0.0199127 -6.37399e-20)
(-2.18208 0.0194452 0)
(-2.2101 0.0190183 0)
(-2.23788 0.0186284 6.04459e-20)
(-2.26544 0.0182811 5.93568e-20)
(-2.29281 0.0179741 0)
(-2.32003 0.0177115 -5.71898e-20)
(-2.34713 0.0174906 5.61112e-20)
(-2.37416 0.0173146 0)
(-2.40115 0.0171826 -5.39633e-20)
(-2.42813 0.0170977 0)
(-2.45515 0.0170627 0)
(-2.48223 0.0170807 5.07713e-20)
(-2.50941 0.0171512 0)
(-2.53671 0.0172735 -4.86726e-20)
(-2.56417 0.0174492 0)
(-2.5918 0.0176737 4.66091e-20)
(-2.61962 0.0179422 4.55949e-20)
(-2.64764 0.018245 4.45946e-20)
(-2.67586 0.0185798 8.7223e-20)
(-2.70429 0.0189364 -8.52959e-20)
(-2.73288 0.0193094 0)
(-2.76159 0.0196775 0)
(-2.79037 0.0200304 0)
(-2.81918 0.020328 -7.80718e-20)
(-2.84804 0.0205359 -7.63964e-20)
(-2.87688 0.0206365 7.47765e-20)
(-2.90558 0.020615 0)
(-2.93401 0.0204649 -7.1706e-20)
(-2.96201 0.0201761 -7.0257e-20)
(-2.98945 0.0197461 -6.88674e-20)
(-3.01613 0.0191743 0)
(-3.04186 0.0184699 0)
(-3.06645 0.0176407 0)
(-3.08965 0.0166981 -6.39679e-20)
(-3.11119 0.0156526 0)
(-3.13079 0.0145331 0)
(-3.14809 0.0133235 6.10656e-20)
(-3.16273 0.0118958 0)
(-3.1742 0.0101621 0)
(-3.18199 0.00768762 5.87659e-20)
(-3.1856 0.00577176 0)
(-3.18615 0.00572292 0)
(-3.18361 0.00435577 -5.64662e-20)
(-3.17717 0.0025032 -5.56401e-20)
(-3.16699 0.00137436 0)
(-3.15275 -0.000543557 5.39464e-20)
(-3.13421 -0.00254977 0)
(-3.11105 -0.00514735 -5.19304e-20)
(-3.08303 -0.00756311 0)
(-3.05024 -0.00914703 -4.93896e-20)
(-3.01268 -0.0116192 -4.78772e-20)
(-2.96979 -0.0147087 0)
(-2.92147 -0.0174727 0)
(-2.86795 -0.0201686 0)
(-2.80913 -0.0228892 0)
(-2.74494 -0.0260572 0)
(-2.6753 -0.0293245 0)
(-2.60026 -0.0326801 0)
(-2.51981 -0.0361171 -2.35691e-20)
(-2.43407 -0.0396198 1.8216e-20)
(-2.34319 -0.0431534 0)
(-2.24735 -0.0467041 0)
(-2.14678 -0.0502263 0)
(-2.04175 -0.0536988 0)
(-1.93254 -0.0570827 -4.217e-20)
(-1.81948 -0.060358 0)
(-1.70293 -0.0634916 8.86188e-20)
(-1.58327 -0.0664687 -1.15938e-19)
(-1.46088 -0.0692619 0)
(-1.3362 -0.0718656 0)
(-1.20963 -0.0742879 0)
(-1.08161 -0.0765272 2.60226e-19)
(-0.952554 -0.0785986 3.07443e-19)
(-0.822853 -0.0805164 0)
(-0.69289 -0.0823009 4.20374e-19)
(-0.56303 -0.0839031 4.88464e-19)
(-0.43378 -0.085291 -5.66584e-19)
(-0.305035 -0.0865586 0)
(-0.178239 -0.0878844 0)
(-0.0500172 -0.0874922 -8.10018e-19)
(0.081131 -0.0843144 0)
(0.20938 -0.0801658 0)
(0.334426 -0.0759038 0)
(0.455647 -0.0717233 0)
(0.572699 -0.0676854 6.69817e-19)
(0.68541 -0.0638071 6.52462e-19)
(0.793697 -0.0600832 0)
(0.897554 -0.0565412 6.23613e-19)
(0.997023 -0.0531976 0)
(1.09216 -0.0500084 0)
(1.18305 -0.0469649 5.90423e-19)
(1.26984 -0.0441012 0)
(1.35266 -0.0414162 5.7253e-19)
(1.43162 -0.0388825 0)
(1.50687 -0.0364905 0)
(1.57853 -0.0342315 5.50545e-19)
(1.64676 -0.0321052 0)
(1.71171 -0.0301073 5.38251e-19)
(1.77351 -0.0282268 0)
(1.83229 -0.0264521 0)
(1.88816 -0.024778 0)
(1.94123 -0.0231952 -5.18122e-19)
(1.9916 -0.0216931 0)
(2.03933 -0.0202597 5.0995e-19)
(2.08446 -0.0188797 0)
(2.12698 -0.0175265 0)
(2.16677 -0.0161673 0)
(2.20359 -0.0147411 0)
(2.23697 -0.0131537 0)
(2.26564 -0.011217 0)
(2.28872 -0.00827639 0)
(2.29675 -0.00282715 -9.97723e-19)
(2.29119 0.0102216 0)
(2.18269 0.0290672 0)
(0.0154578 -0.0576253 1.4343e-18)
(0.0362401 -0.0732498 -6.38342e-19)
(0.0468123 -0.0663547 0)
(0.0536186 -0.0543191 1.92454e-19)
(0.0562103 -0.0396148 0)
(0.0548798 -0.0235991 7.54883e-20)
(0.0501223 -0.00726729 -1.43608e-19)
(0.0421893 0.00872283 -1.39452e-19)
(0.031294 0.0237728 0)
(0.0171386 0.0373395 -1.37409e-19)
(-0.000405723 0.0491124 -6.91287e-20)
(-0.0214006 0.0590583 0)
(-0.0458603 0.0673901 0)
(-0.0737845 0.0744728 0)
(-0.105178 0.0807527 0)
(-0.139893 0.0866301 -6.04414e-20)
(-0.1776 0.0924248 0)
(-0.218144 0.0983607 1.11574e-19)
(-0.261468 0.104532 0)
(-0.30744 0.110905 0)
(-0.355887 0.117346 -9.81677e-20)
(-0.406592 0.123667 0)
(-0.459287 0.129664 8.96909e-20)
(-0.513652 0.135148 -4.30187e-20)
(-0.569322 0.139934 4.11124e-20)
(-0.625906 0.143869 -3.93118e-20)
(-0.68301 0.146842 -3.76223e-20)
(-0.740248 0.148801 0)
(-0.797265 0.14972 0)
(-0.853735 0.1496 3.3218e-20)
(-0.909379 0.148499 -3.16921e-20)
(-0.963973 0.146521 0)
(-1.01734 0.143788 0)
(-1.06936 0.140442 2.87653e-20)
(-1.11996 0.136617 0)
(-1.16907 0.132447 0)
(-1.2167 0.12805 -2.62841e-20)
(-1.26284 0.123533 0)
(-1.30754 0.118987 2.47232e-20)
(-1.35084 0.114489 -4.86966e-20)
(-1.39279 0.110095 0)
(-1.43346 0.105851 0)
(-1.47292 0.101785 -9.08443e-20)
(-1.51123 0.0979179 -8.90758e-20)
(-1.54848 0.0942578 -8.74195e-20)
(-1.58473 0.0908111 4.27472e-20)
(-1.62004 0.0875719 -4.2378e-20)
(-1.65448 0.0845379 -1.24688e-19)
(-1.68811 0.0816966 8.16876e-20)
(-1.72098 0.0790411 4.03768e-20)
(-1.75314 0.0765548 0)
(-1.78464 0.0742292 -3.91764e-20)
(-1.81554 0.0720479 3.8308e-20)
(-1.84586 0.0700032 0)
(-1.87565 0.0680796 0)
(-1.90495 0.0662714 0)
(-1.93378 0.0645654 -3.64686e-20)
(-1.96218 0.0629582 0)
(-1.99017 0.061438 7.068e-20)
(-2.01779 0.0600032 0)
(-2.04505 0.0586444 6.87236e-20)
(-2.07198 0.0573621 0)
(-2.0986 0.0561488 -6.67925e-20)
(-2.12495 0.0550059 0)
(-2.15103 0.0539274 6.48709e-20)
(-2.17688 0.052916 -3.18702e-20)
(-2.20251 0.0519672 0)
(-2.22796 0.0510847 -6.19801e-20)
(-2.25324 0.0502653 -3.05812e-20)
(-2.27838 0.0495127 -3.0095e-20)
(-2.30341 0.0488241 0)
(-2.32834 0.0482018 -2.89843e-20)
(-2.35321 0.0476427 -2.86358e-20)
(-2.37804 0.0471459 0)
(-2.40285 0.0467069 2.76641e-20)
(-2.42767 0.0463233 -5.42213e-20)
(-2.4525 0.0459924 0)
(-2.47738 0.0457109 -2.62136e-20)
(-2.50229 0.0454724 0)
(-2.52727 0.0452685 7.56169e-20)
(-2.5523 0.0450944 0)
(-2.57738 0.0449405 -7.27731e-20)
(-2.6025 0.0447974 -2.38484e-20)
(-2.62765 0.0446479 2.32063e-20)
(-2.65281 0.0444837 4.54886e-20)
(-2.67793 0.0442912 -4.45795e-20)
(-2.70299 0.0440684 0)
(-2.72789 0.0438028 0)
(-2.75256 0.0434891 0)
(-2.7769 0.043095 1.24521e-19)
(-2.80086 0.0425771 4.09195e-20)
(-2.82436 0.0419034 -4.01795e-20)
(-2.84726 0.041052 0)
(-2.86944 0.0400088 -3.81561e-20)
(-2.89075 0.0387492 3.81161e-20)
(-2.91103 0.0372537 3.74816e-20)
(-2.93013 0.0354956 0)
(-2.94787 0.0334603 0)
(-2.9641 0.0311256 0)
(-2.97862 0.0284796 3.52479e-20)
(-2.99129 0.0255017 0)
(-3.00197 0.0221819 -6.81497e-20)
(-3.01057 0.0185196 -1.01271e-19)
(-3.01698 0.0145391 6.65893e-20)
(-3.02119 0.010305 0)
(-3.02326 0.00592875 3.2308e-20)
(-3.0232 0.00151385 0)
(-3.01987 -0.00298077 6.36479e-20)
(-3.01289 -0.00760612 -3.12538e-20)
(-3.00236 -0.0124273 -3.08844e-20)
(-2.98787 -0.0174781 0)
(-2.96918 -0.0227126 -9.11633e-20)
(-2.94613 -0.0281127 5.97099e-20)
(-2.91859 -0.0337099 2.94839e-20)
(-2.88638 -0.0393925 0)
(-2.84916 -0.0451417 2.82271e-20)
(-2.80678 -0.0510457 8.22729e-20)
(-2.75921 -0.0569304 0)
(-2.70637 -0.0628204 5.11771e-20)
(-2.64814 -0.0687832 4.89426e-20)
(-2.58437 -0.0746976 4.63846e-20)
(-2.51506 -0.0805754 0)
(-2.44025 -0.0863642 0)
(-2.35989 -0.0920424 0)
(-2.27401 -0.0975096 -1.64284e-20)
(-2.18271 -0.102767 -1.30556e-20)
(-2.08614 -0.107765 0)
(-1.9845 -0.112489 -1.57668e-20)
(-1.87802 -0.116896 -9.14124e-21)
(-1.76697 -0.120968 0)
(-1.65166 -0.124659 8.10057e-21)
(-1.53245 -0.127953 2.9474e-20)
(-1.40972 -0.130822 -2.64697e-20)
(-1.28388 -0.133256 -3.15813e-20)
(-1.15536 -0.135246 0)
(-1.02461 -0.136797 0)
(-0.892084 -0.137912 0)
(-0.758244 -0.138616 -8.46217e-20)
(-0.623549 -0.138937 9.168e-20)
(-0.488436 -0.138909 2.18447e-19)
(-0.353293 -0.138565 -1.27665e-19)
(-0.218554 -0.137968 1.36006e-19)
(-0.083982 -0.137232 1.56837e-19)
(0.0503591 -0.136538 0)
(0.183105 -0.135948 0)
(0.312457 -0.134181 -1.74011e-19)
(0.437605 -0.130451 0)
(0.558955 -0.125623 0)
(0.677012 -0.120345 3.94743e-19)
(0.791646 -0.114895 0)
(0.902672 -0.109411 2.06319e-19)
(1.00996 -0.103983 -2.16476e-19)
(1.11341 -0.0986576 0)
(1.21299 -0.0934767 2.21033e-19)
(1.30871 -0.0884724 0)
(1.40058 -0.0836565 0)
(1.48867 -0.079033 -2.36218e-19)
(1.57305 -0.0746243 4.74853e-19)
(1.65379 -0.0704287 -2.41787e-19)
(1.73097 -0.0664298 0)
(1.80474 -0.062628 0)
(1.8752 -0.0590244 2.45894e-19)
(1.94249 -0.0556202 0)
(2.00671 -0.0524038 2.49751e-19)
(2.06798 -0.0493555 0)
(2.12642 -0.0464644 0)
(2.18214 -0.0437237 0)
(2.23523 -0.0411173 2.5751e-19)
(2.28577 -0.0386259 0)
(2.33383 -0.0362278 -2.59645e-19)
(2.37943 -0.0338879 0)
(2.42256 -0.0315527 0)
(2.46311 -0.0291398 5.23873e-19)
(2.50086 -0.0265285 -5.26005e-19)
(2.5354 -0.0234708 0)
(2.56581 -0.0195776 0)
(2.59124 -0.0135948 0)
(2.60811 -0.00326927 1.62581e-18)
(2.62491 0.0178806 0)
(2.61384 0.0565896 -1.124e-18)
(0.00898995 -0.1026 -7.93441e-22)
(0.0200316 -0.0972349 6.30171e-19)
(0.0206291 -0.0745489 0)
(0.0183778 -0.0522776 -2.6226e-19)
(0.0126405 -0.0303146 0)
(0.0039669 -0.00857973 0)
(-0.00718365 0.0127303 8.20309e-23)
(-0.0206311 0.0333508 8.29811e-20)
(-0.0363923 0.0530384 7.89331e-20)
(-0.0545849 0.0715364 7.62136e-20)
(-0.0753725 0.0886151 0)
(-0.0989388 0.104163 0)
(-0.125449 0.118234 -7.04675e-20)
(-0.155019 0.131034 -1.37629e-19)
(-0.187677 0.142863 1.34224e-19)
(-0.223334 0.154052 0)
(-0.261797 0.164856 1.2694e-19)
(-0.302819 0.175398 -6.16872e-20)
(-0.346122 0.185694 0)
(-0.391404 0.195646 1.15078e-19)
(-0.438347 0.205071 5.56648e-20)
(-0.486623 0.21374 -1.0707e-19)
(-0.535898 0.221417 -5.17161e-20)
(-0.585845 0.227889 0)
(-0.636147 0.232984 9.57479e-20)
(-0.686511 0.236587 9.22659e-20)
(-0.736677 0.23864 0)
(-0.786414 0.239142 8.57897e-20)
(-0.835507 0.238154 0)
(-0.8838 0.235794 7.99311e-20)
(-0.931189 0.232214 3.87526e-20)
(-0.977602 0.227593 0)
(-1.02299 0.222124 0)
(-1.06731 0.216003 0)
(-1.11056 0.209411 0)
(-1.15273 0.202518 0)
(-1.19384 0.19547 0)
(-1.2339 0.188391 6.3339e-20)
(-1.27293 0.181386 -9.2928e-20)
(-1.31096 0.174537 0)
(-1.34802 0.167909 0)
(-1.38415 0.161546 0)
(-1.41937 0.155478 2.05672e-22)
(-1.45374 0.149722 5.6131e-20)
(-1.48728 0.144284 1.101e-19)
(-1.52004 0.139164 -1.08248e-19)
(-1.55206 0.134352 -5.31518e-20)
(-1.58336 0.129839 5.25056e-20)
(-1.614 0.125608 -1.81525e-22)
(-1.644 0.121644 5.07637e-20)
(-1.67341 0.117928 0)
(-1.70225 0.114443 4.93245e-20)
(-1.73055 0.111171 -1.625e-22)
(-1.75836 0.108097 0)
(-1.78569 0.105204 0)
(-1.81257 0.102478 -4.66892e-20)
(-1.83904 0.0999064 0)
(-1.8651 0.0974786 0)
(-1.8908 0.0951838 4.47125e-20)
(-1.91614 0.0930142 8.84887e-20)
(-1.94114 0.0909619 -4.3771e-20)
(-1.96584 0.0890219 0)
(-1.99024 0.0871888 4.25789e-20)
(-2.01437 0.0854594 0)
(-2.03824 0.0838305 4.11823e-20)
(-2.06188 0.0823005 4.0798e-20)
(-2.0853 0.0808679 -8.02112e-20)
(-2.10853 0.0795322 -3.94179e-20)
(-2.13158 0.0782928 0)
(-2.15447 0.0771492 7.66436e-20)
(-2.17723 0.0761003 0)
(-2.19987 0.0751444 1.11461e-19)
(-2.22241 0.0742795 7.30457e-20)
(-2.24488 0.0735012 7.18412e-20)
(-2.26729 0.0728053 -7.06353e-20)
(-2.28966 0.0721858 1.04237e-19)
(-2.31201 0.0716374 0)
(-2.33435 0.0711511 0)
(-2.35669 0.0707171 -6.58203e-20)
(-2.37903 0.0703214 -9.70428e-20)
(-2.40138 0.0699527 0)
(-2.42373 0.0695936 3.12414e-20)
(-2.44607 0.0692276 0)
(-2.4684 0.0688323 -9.00257e-20)
(-2.49068 0.0683902 -2.52016e-22)
(-2.5129 0.0678781 2.63803e-22)
(-2.53502 0.0672798 5.65837e-20)
(-2.55697 0.0665729 0)
(-2.57867 0.0657377 -5.44725e-20)
(-2.60006 0.0647368 -3.24026e-22)
(-2.62108 0.0635269 0)
(-2.64166 0.0620704 0)
(-2.66172 0.0603421 0)
(-2.68112 0.0583181 5.01514e-20)
(-2.69976 0.0559754 0)
(-2.7175 0.0532888 0)
(-2.73421 0.0502373 0)
(-2.74976 0.046803 0)
(-2.76399 0.0429727 0)
(-2.77676 0.0387393 4.54433e-20)
(-2.78792 0.0340978 0)
(-2.79732 0.0290552 4.46962e-20)
(-2.80479 0.0236176 4.41882e-20)
(-2.81017 0.0177957 -4.37074e-20)
(-2.81326 0.0115983 0)
(-2.81387 0.00503245 -4.27432e-20)
(-2.81171 -0.00185395 0)
(-2.80633 -0.00898175 -4.17739e-20)
(-2.79747 -0.016461 4.1295e-20)
(-2.78501 -0.0243042 1.21843e-19)
(-2.76865 -0.0324667 0)
(-2.7482 -0.04095 1.18512e-19)
(-2.72344 -0.0497214 3.86807e-20)
(-2.69422 -0.0587707 0)
(-2.66027 -0.068004 7.47342e-20)
(-2.62145 -0.0773265 7.29628e-20)
(-2.57756 -0.0868207 -1.06431e-19)
(-2.52844 -0.0963852 0)
(-2.47412 -0.105937 -3.29067e-20)
(-2.41435 -0.115526 -3.13708e-20)
(-2.3491 -0.125029 -8.94442e-20)
(-2.27834 -0.134429 0)
(-2.20208 -0.143638 0)
(-2.1203 -0.152607 0)
(-2.03305 -0.161234 -2.13443e-20)
(-1.94042 -0.169462 0)
(-1.84258 -0.177232 0)
(-1.73973 -0.184487 9.76401e-21)
(-1.63211 -0.191169 5.6299e-21)
(-1.52001 -0.197228 0)
(-1.40376 -0.202611 0)
(-1.28374 -0.207276 -1.78229e-20)
(-1.16034 -0.211187 0)
(-1.034 -0.214323 4.07269e-20)
(-0.905161 -0.216671 4.98423e-20)
(-0.774301 -0.218237 0)
(-0.641892 -0.219032 0)
(-0.508406 -0.219092 -9.02697e-20)
(-0.374302 -0.218459 -4.0268e-21)
(-0.240029 -0.217197 -4.18369e-21)
(-0.10587 -0.215415 0)
(0.0278362 -0.213205 -2.9812e-19)
(0.160337 -0.210439 0)
(0.290875 -0.206955 0)
(0.418862 -0.202805 0)
(0.543669 -0.198053 1.93407e-19)
(0.664935 -0.192503 0)
(0.782721 -0.186131 -4.17742e-19)
(0.897104 -0.179226 -2.21613e-19)
(1.00799 -0.172013 0)
(1.11527 -0.16465 -2.38558e-19)
(1.21884 -0.15725 0)
(1.31866 -0.149895 0)
(1.4147 -0.142653 -7.77102e-19)
(1.50698 -0.135575 5.29731e-19)
(1.59553 -0.128696 0)
(1.68041 -0.122031 5.54287e-19)
(1.76169 -0.115612 -2.84789e-19)
(1.83944 -0.109459 0)
(1.9138 -0.103573 0)
(1.98489 -0.0979516 0)
(2.05281 -0.0925933 -9.05178e-19)
(2.1177 -0.0875013 0)
(2.17964 -0.0826643 -3.10117e-19)
(2.23878 -0.0780644 0)
(2.29522 -0.0736872 0)
(2.34907 -0.0695213 0)
(2.40042 -0.0655447 0)
(2.44935 -0.0617314 0)
(2.49593 -0.0580481 0)
(2.54019 -0.0544406 -6.56707e-19)
(2.58211 -0.0508273 0)
(2.62161 -0.047087 -3.33667e-19)
(2.65849 -0.0430311 1.00597e-18)
(2.69245 -0.0383234 0)
(2.72282 -0.0323898 0)
(2.74908 -0.0239465 -6.86785e-19)
(2.76879 -0.0108864 -6.96542e-19)
(2.78694 0.0123779 7.0239e-19)
(2.79248 0.0554864 7.21884e-19)
(-0.000572575 -0.119436 -1.96782e-18)
(-0.000115689 -0.0952745 -7.82559e-19)
(-0.00706841 -0.0647167 -2.90829e-19)
(-0.0158898 -0.036488 -1.03657e-19)
(-0.0270134 -0.00957883 0)
(-0.0401054 0.0165201 1.46302e-19)
(-0.0549983 0.041929 -6.59521e-20)
(-0.0716621 0.0666023 0)
(-0.0901648 0.0904127 -5.81165e-20)
(-0.110624 0.113193 0)
(-0.133182 0.13478 1.07925e-19)
(-0.15799 0.155068 0)
(-0.185184 0.174038 5.12699e-20)
(-0.214843 0.191757 1.0011e-19)
(-0.246969 0.208353 -9.76757e-20)
(-0.281467 0.223968 0)
(-0.318158 0.238703 -9.25468e-20)
(-0.356797 0.252589 0)
(-0.397091 0.265577 0)
(-0.438728 0.277541 -8.42241e-20)
(-0.481389 0.288307 0)
(-0.524769 0.29768 6.91131e-23)
(-0.56858 0.305473 0)
(-0.612564 0.311535 0)
(-0.656495 0.315764 -6.45664e-23)
(-0.700182 0.318122 -6.81872e-20)
(-0.743468 0.318627 -6.57754e-20)
(-0.78623 0.317352 -6.36201e-20)
(-0.828388 0.314427 0)
(-0.869884 0.310037 -1.19101e-19)
(-0.910678 0.304388 0)
(-0.950741 0.297695 -5.59851e-20)
(-0.990058 0.290171 0)
(-1.02862 0.282021 0)
(-1.06641 0.273435 5.15243e-20)
(-1.10344 0.264586 0)
(-1.1397 0.255624 -4.90172e-20)
(-1.17519 0.246678 -8.37593e-23)
(-1.20992 0.237855 9.37526e-20)
(-1.24389 0.22924 -9.17008e-20)
(-1.27712 0.220899 0)
(-1.30963 0.212878 0)
(-1.34141 0.205209 -4.31739e-20)
(-1.3725 0.197911 0)
(-1.40291 0.190992 -4.18527e-20)
(-1.43266 0.18445 4.1168e-20)
(-1.46178 0.17828 4.05172e-20)
(-1.49029 0.172468 0)
(-1.51822 0.166999 -3.93023e-20)
(-1.54558 0.161854 -3.87317e-20)
(-1.57241 0.157016 7.62227e-20)
(-1.59873 0.152462 -3.76503e-20)
(-1.62456 0.148175 -3.71346e-20)
(-1.64993 0.144134 0)
(-1.67485 0.140321 0)
(-1.69936 0.13672 3.56619e-20)
(-1.72346 0.133316 0)
(-1.74719 0.130094 0)