/*--------------------------------*- C++ -*----------------------------------*\
| =========                 |                                                 |
| \\      /  F ield         | OpenFOAM: The Open Source CFD Toolbox           |
|  \\    /   O peration     | Version:  2212                                  |
|   \\  /    A nd           | Website:  www.openfoam.com                      |
|    \\/     M anipulation  |                                                 |
\*---------------------------------------------------------------------------*/
FoamFile
{
    version     2.0;
    format      ascii;
    arch        "LSB;label=32;scalar=64";
    class       volScalarField;
    location    "200";
    object      epsilon;
}
// * * * * * * * * * * * * * * * * * * * * * * * * * * * * * * * * * * * * * //

dimensions      [0 2 -3 0 0 0 0];

internalField   nonuniform List<scalar> 
12225
(
1085.71
2467.78
3645.44
4414.75
4812.15
4980.51
4975.33
4926.51
4840.74
4729.17
4620.76
4517.27
4425.6
4339.63
4269.13
4198.65
4151.01
4085.85
81.2301
262.52
438.553
584.501
691.163
762.813
805.022
829.618
846.932
856.792
866.685
873.6
883.056
890.853
900.532
910.303
917.414
934.263
20.5775
51.1734
83.4743
112.529
136.934
156.18
170.173
179.872
186.394
190.768
193.502
195.601
196.873
198.353
199.395
200.697
202.73
206.021
14.7579
21.8683
30.0217
38.4981
46.22
53.0338
58.6265
63.2586
66.7588
69.6425
71.6147
73.3288
74.3199
75.335
75.7357
76.4067
76.6272
77.3396
14.361
16.3337
18.4572
21.4859
24.4399
27.2605
29.7376
31.9818
33.8198
35.4778
36.7462
37.9251
38.7464
39.5712
40.0618
40.6246
40.9661
41.3159
14.6446
14.9541
15.4277
16.4558
17.6095
18.8284
19.9702
21.0764
22.034
22.9477
23.69
24.4149
24.9567
25.5263
25.8935
26.3439
26.5819
26.961
14.7184
14.6387
14.6738
14.8757
15.2177
15.6832
16.1629
16.6722
17.1384
17.6107
18.0106
18.4205
18.7386
19.0875
19.3216
19.6211
19.7758
20.0673
14.7545
14.5907
14.4691
14.4209
14.4418
14.5152
14.6477
14.8246
15.0023
15.2022
15.3793
15.576
15.7327
15.9147
16.0403
16.2068
16.2957
16.4705
14.7641
14.5919
14.4345
14.3029
14.2031
14.1371
14.0973
14.0987
14.1107
14.1415
14.1783
14.2346
14.2794
14.3426
14.3855
14.449
14.4862
14.5565
14.7656
14.5942
14.4321
14.2828
14.1466
14.0296
13.9256
13.8437
13.7744
13.7224
13.6772
13.6482
13.6204
13.6063
13.5893
13.5835
13.5731
13.5818
14.7657
14.5945
14.4323
14.2806
14.137
14.0051
13.8816
13.7705
13.6679
13.5777
13.4939
13.4219
13.3537
13.2971
13.2407
13.1973
13.1474
13.1179
14.7657
14.5944
14.4323
14.2801
14.1357
14.0007
13.8728
13.754
13.6417
13.5386
13.441
13.3523
13.2677
13.1922
13.1185
13.055
12.9896
12.9369
14.7657
14.5941
14.4321
14.2797
14.1353
13.9995
13.8707
13.7497
13.6347
13.5271
13.4248
13.3294
13.2384
13.1542
13.0732
12.9991
12.9267
12.8616
14.7657
14.594
14.4319
14.2792
14.1349
13.9987
13.8698
13.7481
13.6327
13.5237
13.4201
13.3224
13.2294
13.1418
13.0582
12.9796
12.9043
12.8337
14.7657
14.5938
14.4317
14.2789
14.1345
13.9981
13.8691
13.7471
13.6316
13.5222
13.4183
13.32
13.2265
13.1379
13.0536
12.9737
12.8975
12.8253
14.7657
14.5938
14.4316
14.2786
14.1341
13.9976
13.8685
13.7463
13.6307
13.5211
13.4171
13.3185
13.2249
13.1361
13.0516
12.9713
12.8949
12.8222
14.7657
14.5937
14.4315
14.2784
14.1338
13.9972
13.868
13.7457
13.6299
13.5202
13.4162
13.3175
13.2237
13.1347
13.0501
12.9697
12.8931
12.8203
14.7657
14.5937
14.4314
14.2783
14.1336
13.9969
13.8677
13.7453
13.6294
13.5196
13.4155
13.3167
13.2228
13.1337
13.049
12.9685
12.8919
12.819
14.7657
14.5937
14.4314
14.2782
14.1336
13.9969
13.8675
13.7452
13.6292
13.5194
13.4152
13.3163
13.2224
13.1333
13.0485
12.968
12.8913
12.8184
14.7657
14.5937
14.4315
14.2783
14.1337
13.997
13.8677
13.7453
13.6294
13.5196
13.4154
13.3166
13.2227
13.1336
13.0489
12.9683
12.8917
12.8188
14.7657
14.5937
14.4316
14.2785
14.1339
13.9973
13.8681
13.7457
13.63
13.5202
13.4163
13.3176
13.2241
13.1352
13.051
12.9708
12.8948
12.8224
14.7657
14.5938
14.4317
14.2786
14.1343
13.9978
13.869
13.7473
13.6325
13.524
13.4219
13.3252
13.2344
13.1483
13.0676
12.9907
12.9192
12.8504
14.7657
14.5937
14.4319
14.2789
14.1361
14.0021
13.8782
13.7629
13.6573
13.5595
13.4707
13.3883
13.3141
13.2446
13.1829
13.1237
13.0729
13.0213
14.7644
14.5922
14.4335
14.2871
14.1628
14.0551
13.9689
13.8978
13.8459
13.8048
13.7783
13.758
13.7482
13.7416
13.7423
13.7433
13.7529
13.7517
14.7478
14.5944
14.4764
14.4102
14.4234
14.4613
14.5554
14.6706
14.817
14.9613
15.1238
15.2712
15.432
15.5684
15.7197
15.8374
15.9783
16.0722
14.6504
14.7821
14.9369
15.3416
15.9227
16.5509
17.2339
17.8781
18.5378
19.1218
19.7129
20.2098
20.7203
21.1251
21.5591
21.8761
22.2458
22.4813
14.572
16.1273
17.9726
20.4197
22.9236
25.2655
27.5469
29.5528
31.4909
33.1029
34.686
35.9145
37.1764
38.0667
39.062
39.6739
40.4626
40.8542
16.5442
25.8795
36.721
46.5547
55.8661
64.2737
72.102
78.742
84.8031
89.5919
94.0148
97.177
100.316
102.193
104.455
105.419
107.138
107.495
45.7966
105.211
164.44
217.234
267.845
313.451
353.662
386.108
413.224
433.658
450.597
462.705
472.894
479.775
486.817
490.308
496.155
497.492
632.343
1081.16
1534.74
1880.99
2183.47
2431.76
2631.52
2773.01
2876.13
2932.17
2969.03
2970.11
2963.09
2946.15
2918.22
2884.95
2849.13
2811.79
0.440213
0.432171
0.723619
1.01422
1.27255
1.48937
1.67874
1.85833
2.02716
2.19246
2.3627
2.54722
2.75936
3.0223
3.34853
3.72774
4.15172
4.62103
5.13971
5.71461
6.35199
7.05925
7.84187
8.70655
9.65804
10.7037
11.85
13.0939
14.4335
15.8716
17.4076
19.0452
20.7845
22.6293
24.5794
26.6397
28.8108
31.1007
33.5181
36.0812
38.8104
41.7434
44.8112
48.0333
51.4029
54.9328
58.6221
62.4802
66.5079
70.7142
75.0997
79.6738
84.4367
89.398
94.5575
99.9252
105.5
111.291
117.297
123.529
129.982
136.668
143.581
150.731
158.114
165.738
173.596
181.697
190.033
198.611
207.423
216.474
225.754
235.269
245.005
254.967
265.139
275.527
286.112
296.898
307.866
319.016
330.327
341.8
353.409
365.152
377.004
388.958
400.987
413.078
425.202
437.332
449.437
461.486
473.444
485.282
496.985
508.574
520.149
531.538
542.783
553.838
564.694
575.32
585.693
595.789
605.58
615.044
624.153
632.883
641.21
649.11
656.559
663.534
670.016
675.983
681.418
686.304
690.627
694.372
697.533
700.103
702.083
703.47
704.267
704.442
703.859
702.712
701.169
699.015
696.219
692.891
689.027
684.654
679.797
674.483
668.742
662.605
656.106
649.281
642.194
634.883
627.388
619.745
611.996
604.179
596.331
588.492
580.7
572.991
565.401
557.958
550.695
543.643
536.828
530.271
523.999
518.025
512.367
507.033
502.036
497.372
493.042
489.044
485.364
481.969
478.876
476.468
477.272
478.838
480.709
482.855
485.24
487.74
490.276
492.521
494.526
495.612
494.31
472.924
1.72258
0.956358
0.848993
0.881663
0.966071
1.07873
1.21281
1.36636
1.53665
1.72364
1.9291
2.15602
2.40836
2.69046
3.00476
3.35117
3.72951
4.14071
4.5864
5.06853
5.58886
6.14897
6.74998
7.39293
8.07847
8.80733
9.57957
10.3946
11.2525
12.1557
13.1049
14.1006
15.1421
16.2297
17.3651
18.5504
19.7875
21.0796
22.4298
23.8418
25.318
26.8591
28.4607
30.1268
31.8577
33.6562
35.5233
37.4613
39.4714
41.5558
43.7156
45.9528
48.2686
50.6648
53.1423
55.703
58.3474
61.0773
63.8929
66.7958
69.7859
72.8647
76.0317
79.2881
82.6331
86.0674
89.59
93.2012
96.8995
100.685
104.556
108.511
112.549
116.668
120.865
125.139
129.487
133.906
138.393
142.945
147.557
152.226
156.947
161.715
166.525
171.372
176.248
181.147
186.062
190.984
195.905
200.813
205.701
210.559
215.382
220.17
224.933
229.697
234.524
239.315
244.043
248.699
253.277
257.766
262.156
266.439
270.604
274.642
278.542
282.297
285.895
289.327
292.584
295.658
298.54
301.221
303.694
305.953
307.99
309.8
311.38
312.725
313.834
314.702
315.325
315.685
315.764
315.633
315.295
314.712
313.872
312.803
311.511
310.005
308.294
306.389
304.302
302.045
299.632
297.078
294.404
291.625
288.757
285.815
282.816
279.775
276.709
273.633
270.565
267.518
264.508
261.548
258.654
255.837
253.11
250.485
247.972
245.579
243.317
241.189
239.204
237.362
235.668
234.122
232.725
231.475
230.387
229.584
229.549
229.744
230.073
230.54
231.103
231.72
232.363
232.961
233.509
234.118
234.276
233.385
3.33423
1.5858
1.2769
1.22879
1.26998
1.35917
1.48306
1.63719
1.81939
2.0286
2.26426
2.52624
2.81462
3.12963
3.47125
3.83922
4.23344
4.65427
5.10239
5.57877
6.08435
6.62007
7.1868
7.78545
8.417
9.08277
9.78455
10.5203
11.287
12.0808
12.908
13.7727
14.6764
15.6202
16.6055
17.634
18.7071
19.8261
20.9923
22.2069
23.4705
24.784
26.1478
27.564
29.0341
30.5585
32.1385
33.7751
35.4697
37.2232
39.0369
40.9117
42.8485
44.8485
46.9124
49.041
51.2351
53.4953
55.8221
58.2162
60.6778
63.2073
65.8049
68.4708
71.2048
74.0068
76.8766
79.8136
82.8174
85.8872
89.0221
92.2212
95.4832
98.8066
102.19
105.632
109.129
112.681
116.284
119.937
123.636
127.378
131.16
134.978
138.829
142.709
146.612
150.535
154.473
158.42
162.372
166.324
170.27
174.209
178.138
182.058
185.972
189.883
193.79
197.661
201.485
205.256
208.966
212.608
216.174
219.657
223.049
226.343
229.53
232.602
235.552
238.373
241.056
243.595
245.982
248.211
250.275
252.169
253.886
255.423
256.775
257.94
258.913
259.692
260.276
260.643
260.78
260.776
260.571
260.174
259.581
258.802
257.844
256.713
255.417
253.963
252.361
250.621
248.754
246.772
244.689
242.517
240.268
237.956
235.592
233.19
230.762
228.321
225.879
223.45
221.043
218.671
216.345
214.075
211.871
209.742
207.696
205.74
203.882
202.126
200.477
198.939
197.514
196.203
195.008
193.928
192.971
192.184
191.706
191.383
191.167
191.037
190.962
190.92
190.889
190.847
190.815
190.966
191.176
191.895
4.85498
2.20165
1.74046
1.6399
1.65734
1.73883
1.86471
2.02732
2.22316
2.45026
2.70706
2.99207
3.30382
3.64095
4.00227
4.38696
4.79456
5.22514
5.67916
6.15737
6.66064
7.18993
7.74616
8.33017
8.94262
9.58386
10.2535
10.9538
11.6875
12.4588
13.2672
14.1126
14.996
15.9184
16.881
17.8853
18.9326
20.0241
21.1599
22.3407
23.5669
24.8389
26.1569
27.5202
28.9333
30.3974
31.9136
33.4829
35.1066
36.7855
38.5207
40.3133
42.164
44.0741
46.0441
48.0749
50.1671
52.3214
54.5384
56.8186
59.1626
61.5707
64.0432
66.5803
69.1822
71.8488
74.58
77.3755
80.2351
83.1581
86.1439
89.1918
92.3006
95.4694
98.6967
101.981
105.321
108.714
112.158
115.652
119.192
122.777
126.402
130.065
133.762
137.491
141.247
145.026
148.824
152.638
156.463
160.295
164.131
167.968
171.802
175.632
179.457
183.272
187.067
190.827
194.545
198.214
201.826
205.375
208.852
212.251
215.564
218.783
221.901
224.911
227.803
230.572
233.209
235.708
238.062
240.263
242.306
244.184
245.892
247.426
248.78
249.952
250.937
251.735
252.342
252.744
252.926
252.955
252.791
252.439
251.902
251.184
250.291
249.23
248.007
246.63
245.107
243.448
241.663
239.764
237.763
235.671
233.499
231.261
228.969
226.633
224.267
221.882
219.491
217.104
214.733
212.388
210.079
207.817
205.61
203.466
201.394
199.401
197.492
195.672
193.946
192.318
190.788
189.357
188.026
186.793
185.66
184.649
183.806
183.082
182.443
181.873
181.33
180.811
180.303
179.81
179.358
179.094
179.058
179.626
6.18142
2.80472
2.20895
2.06383
2.06131
2.13519
2.26049
2.4266
2.62851
2.86328
3.1287
3.42271
3.74336
4.08885
4.4577
4.8489
5.26193
5.6968
6.15393
6.63408
7.13819
7.66733
8.22257
8.80499
9.41563
10.0555
10.7259
11.4282
12.1644
12.9358
13.7433
14.5877
15.4697
16.3904
17.3506
18.3513
19.393
20.4764
21.6031
22.7741
23.9904
25.2531
26.5636
27.9241
29.3348
30.7967
32.3107
33.8779
35.4996
37.1768
38.9107
40.7023
42.5529
44.4636
46.4357
48.4698
50.5666
52.727
54.9516
57.2414
59.597
62.019
64.508
67.0644
69.6887
72.3809
75.1414
77.97
80.8667
83.8312
86.8631
89.9618
93.1265
96.3563
99.65
103.006
106.424
109.901
113.435
117.025
120.667
124.36
128.1
131.884
135.71
139.573
143.469
147.396
151.35
155.325
159.318
163.325
167.342
171.364
175.387
179.406
183.415
187.408
191.375
195.308
199.2
203.042
206.827
210.548
214.196
217.765
221.245
224.63
227.91
231.079
234.127
237.048
239.832
242.474
244.964
247.297
249.465
251.462
253.283
254.92
256.372
257.631
258.697
259.564
260.232
260.695
260.927
260.981
260.838
260.498
259.965
259.243
258.336
257.252
255.997
254.578
253.004
251.284
249.429
247.451
245.36
243.169
240.889
238.533
236.114
233.644
231.134
228.597
226.045
223.49
220.942
218.412
215.911
213.449
211.034
208.674
206.378
204.152
202.003
199.935
197.952
196.056
194.251
192.535
190.909
189.371
187.921
186.566
185.324
184.176
183.102
182.089
181.11
180.16
179.233
178.34
177.514
176.876
176.474
176.594
7.32955
3.3711
2.66017
2.47289
2.45178
2.51609
2.63719
2.80186
3.00363
3.23877
3.50462
3.79895
4.11977
4.46535
4.83428
5.22562
5.6389
6.07415
6.53179
7.01256
7.51741
8.04743
8.60377
9.18762
9.80017
10.4427
11.1164
11.8226
12.5628
13.3379
14.1491
14.9973
15.8835
16.8086
17.7736
18.7796
19.8274
20.9183
22.0533
23.2336
24.4606
25.7354
27.0594
28.4339
29.8602
31.3394
32.8726
34.4613
36.1067
37.8102
39.5731
41.3967
43.2823
45.2311
47.2441
49.3228
51.4685
53.6827
55.9663
58.3205
60.7464
63.2449
65.8169
68.4632
71.1846
73.9816
76.8546
79.8039
82.8299
85.9323
89.1111
92.3659
95.6961
99.101
102.579
106.13
109.752
113.443
117.201
121.025
124.91
128.856
132.858
136.914
141.02
145.172
149.366
153.597
157.863
162.157
166.476
170.814
175.165
179.525
183.887
188.245
192.591
196.918
201.218
205.482
209.702
213.871
217.98
222.021
225.985
229.863
233.648
237.329
240.899
244.349
247.671
250.854
253.892
256.775
259.496
262.047
264.42
266.609
268.607
270.408
272.006
273.398
274.579
275.545
276.295
276.826
277.111
277.19
277.057
276.711
276.154
275.392
274.429
273.271
271.926
270.4
268.703
266.845
264.837
262.689
260.414
258.024
255.533
252.952
250.294
247.574
244.803
241.994
239.16
236.312
233.464
230.625
227.806
225.018
222.269
219.569
216.925
214.344
211.833
209.396
207.037
204.759
202.565
200.456
198.429
196.486
194.623
192.845
191.155
189.547
188.008
186.526
185.089
183.69
182.331
181.027
179.812
178.787
177.978
177.551
8.91457
3.99978
3.11074
2.86206
2.81462
2.86416
2.97671
3.13568
3.3329
3.56375
3.8252
4.11497
4.43116
4.77223
5.137
5.52466
5.93486
6.36765
6.82341
7.30286
7.80689
8.33654
8.89296
9.47734
10.0909
10.7348
11.4104
12.1189
12.8615
13.6393
14.4536
15.3053
16.1956
17.1256
18.0964
19.1092
20.1651
21.2655
22.4117
23.605
24.8467
26.1385
27.4816
28.8776
30.328
31.8342
33.3977
35.0202
36.7033
38.4485
40.2575
42.132
44.0736
46.0839
48.1646
50.3173
52.5439
54.8458
57.2247
59.6822
62.2196
64.8384
67.5399
70.3253
73.1956
76.1518
79.1947
82.325
85.5432
88.8495
92.2439
95.7265
99.2966
102.954
106.697
110.525
114.437
118.43
122.502
126.652
130.876
135.172
139.536
143.964
148.452
152.996
157.592
162.235
166.919
171.639
176.39
181.164
185.957
190.76
195.567
200.37
205.16
209.929
214.669
219.37
224.024
228.622
233.154
237.612
241.985
246.265
250.441
254.504
258.445
262.253
265.919
269.435
272.789
275.974
278.981
281.801
284.425
286.847
289.059
291.054
292.826
294.371
295.684
296.761
297.599
298.198
298.531
298.629
298.493
298.122
297.518
296.687
295.633
294.363
292.885
291.205
289.334
287.282
285.059
282.679
280.153
277.494
274.717
271.834
268.859
265.807
262.69
259.524
256.32
253.091
249.851
246.611
243.382
240.174
236.998
233.862
230.775
227.744
224.776
221.876
219.048
216.297
213.625
211.033
208.522
206.091
203.74
201.468
199.279
197.167
195.126
193.149
191.229
189.363
187.557
185.827
184.207
182.778
181.543
180.563
10.9518
4.69007
3.55468
3.22278
3.1398
3.16899
3.26907
3.41913
3.60893
3.83281
4.08729
4.36998
4.67908
5.01325
5.37147
5.75314
6.15796
6.58603
7.03773
7.51369
8.01475
8.54189
9.0962
9.67882
10.2909
10.9338
11.6086
12.3166
13.0591
13.8373
14.6524
15.5056
16.3983
17.3316
18.307
19.3257
20.3892
21.4989
22.6563
23.8631
25.1209
26.4314
27.7963
29.2173
30.6963
32.2351
33.8355
35.4995
37.2291
39.0262
40.893
42.8315
44.8438
46.932
49.0983
51.3448
53.6737
56.087
58.5869
61.1753
63.8543
66.6257
69.4913
72.4528
75.5116
78.6692
81.9268
85.2854
88.7458
92.3086
95.974
99.7422
103.613
107.586
111.659
115.833
120.105
124.473
128.935
133.489
138.131
142.857
147.665
152.549
157.506
162.529
167.614
172.755
177.945
183.179
188.449
193.748
199.068
204.401
209.738
215.071
220.389
225.684
230.946
236.164
241.329
246.431
251.459
256.403
261.252
265.996
270.624
275.125
279.489
283.705
287.763
291.652
295.362
298.883
302.206
305.321
308.219
310.893
313.334
315.535
317.489
319.192
320.637
321.821
322.741
323.396
323.762
323.865
323.707
323.287
322.608
321.678
320.5
319.081
317.43
315.554
313.463
311.168
308.681
306.015
303.182
300.197
297.074
293.827
290.471
287.022
283.493
279.899
276.254
272.573
268.867
265.151
261.435
257.731
254.049
250.4
246.791
243.23
239.726
236.284
232.91
229.608
226.382
223.234
220.166
217.179
214.274
211.45
208.709
206.05
203.47
200.966
198.536
196.181
193.907
191.734
189.69
187.842
186.169
184.675
12.9463
5.34463
3.95912
3.53989
3.41799
3.42425
3.50961
3.64888
3.82965
4.04519
4.29148
4.56596
4.86686
5.19292
5.54331
5.91753
6.31537
6.73696
7.18265
7.65307
8.14899
8.67136
9.22119
9.79956
10.4076
11.0467
11.718
12.4228
13.1625
13.9385
14.7521
15.6047
16.4977
17.4327
18.411
19.4344
20.5044
21.6226
22.791
24.0114
25.2858
26.6163
28.0049
29.4538
30.9652
32.5412
34.1842
35.8965
37.6806
39.5389
41.4741
43.4886
45.5851
47.7664
50.035
52.3937
54.8452
57.3922
60.0373
62.7831
65.6322
68.587
71.6498
74.8227
78.1079
81.5072
85.0222
88.6542
92.4045
96.2739
100.263
104.372
108.601
112.948
117.415
121.998
126.696
131.507
136.429
141.458
146.59
151.822
157.149
162.566
168.067
173.647
179.298
185.014
190.788
196.612
202.477
208.375
214.297
220.232
226.172
232.104
238.019
243.906
249.754
255.551
261.285
266.947
272.523
278.003
283.374
288.625
293.743
298.717
303.536
308.187
312.66
316.942
321.023
324.893
328.541
331.957
335.131
338.055
340.721
343.121
345.247
347.094
348.656
349.929
350.909
351.596
351.969
352.052
351.841
351.341
350.554
349.488
348.149
346.542
344.676
342.561
340.207
337.624
334.825
331.824
328.635
325.273
321.752
318.087
314.296
310.393
306.393
302.313
298.168
293.972
289.739
285.482
281.216
276.95
272.698
268.468
264.271
260.115
256.008
251.959
247.972
244.054
240.21
236.443
232.758
229.157
225.641
222.213
218.876
215.629
212.475
209.413
206.446
203.578
200.817
198.182
195.697
193.416
191.299
189.324
14.794
5.93321
4.31046
3.80684
3.64472
3.6286
3.69807
3.82559
3.99658
4.20319
4.44084
4.70673
4.99901
5.31648
5.65837
6.02428
6.41407
6.82789
7.26608
7.72925
8.21821
8.73396
9.27758
9.84962
10.4514
11.0843
11.7497
12.4492
13.1841
13.9559
14.7663
15.6167
16.5089
17.4444
18.4251
19.4528
20.5294
21.6567
22.8366
24.0711
25.3636
26.7164
28.1321
29.613
31.1619
32.7814
34.4743
36.2435
38.092
40.0228
42.039
44.144
46.3408
48.6328
51.0233
53.5157
56.1133
58.8195
61.6376
64.5708
67.6223
70.795
74.092
77.516
81.0694
84.7547
88.5738
92.5286
96.6204
100.85
105.219
109.728
114.375
119.16
124.084
129.143
134.335
139.659
145.11
150.686
156.382
162.192
168.111
174.134
180.253
186.462
192.752
199.115
205.543
212.026
218.554
225.117
231.704
238.303
244.904
251.493
258.059
264.589
271.071
277.491
283.836
290.095
296.253
302.298
308.216
313.995
319.622
325.082
330.365
335.456
340.345
345.018
349.464
353.673
357.632
361.332
364.763
367.915
370.781
373.351
375.619
377.578
379.223
380.55
381.555
382.234
382.577
382.598
382.295
381.672
380.734
379.49
377.944
376.104
373.98
371.58
368.916
365.999
362.843
359.461
355.869
352.081
348.114
343.984
339.707
335.3
330.78
326.163
321.465
316.702
311.888
307.039
302.168
297.287
292.408
287.543
282.703
277.896
273.132
268.42
263.767
259.18
254.665
250.229
245.876
241.612
237.44
233.365
229.391
225.522
221.762
218.116
214.588
211.185
207.918
204.804
201.864
199.139
196.578
194.148
16.4401
6.44312
4.60393
4.02198
3.82084
3.78307
3.83697
3.95263
4.11366
4.31122
4.54021
4.79751
5.08118
5.39
5.7232
6.08044
6.46171
6.86721
7.29688
7.7515
8.23206
8.73973
9.27595
9.84107
10.4363
11.063
11.7226
12.4167
13.1468
13.9145
14.7217
15.5701
16.4615
17.3978
18.3812
19.4138
20.4978
21.6352
22.8285
24.0802
25.3952
26.7757
28.2246
29.745
31.3401
33.0133
34.7679
36.6072
38.535
40.5549
42.6708
44.8864
47.2059
49.6332
52.1723
54.8274
57.6025
60.5017
63.5289
66.6883
69.9835
73.4182
76.996
80.7201
84.5936
88.6191
92.7992
97.1358
101.631
106.285
111.099
116.074
121.209
126.504
131.956
137.564
143.325
149.236
155.292
161.49
167.823
174.286
180.872
187.574
194.383
201.29
208.287
215.364
222.509
229.712
236.962
244.245
251.549
258.862
266.169
273.457
280.711
287.918
295.063
302.131
309.108
315.98
322.732
329.349
335.817
342.122
348.249
354.185
359.916
365.428
370.708
375.744
380.524
385.036
389.269
393.212
396.855
400.189
403.205
405.896
408.254
410.273
411.948
413.274
414.248
414.866
415.125
415.031
414.58
413.779
412.637
411.161
409.357
407.234
404.8
402.066
399.044
395.745
392.183
388.374
384.332
380.074
375.617
370.976
366.17
361.215
356.13
350.932
345.637
340.263
334.825
329.338
323.818
318.277
312.729
307.185
301.657
296.156
290.692
285.275
279.912
274.614
269.388
264.241
259.182
254.216
249.352
244.596
239.954
235.434
231.043
226.789
222.68
218.725
214.936
211.33
207.923
204.75
201.746
198.883
17.8501
6.86876
4.83942
4.18746
3.95047
3.89219
3.93117
4.03525
4.1865
4.37523
4.59579
4.84482
5.12028
5.42089
5.74555
6.09411
6.46682
6.86434
7.28638
7.73359
8.20675
8.70678
9.2345
9.79067
10.3772
10.9957
11.6479
12.3355
13.0602
13.824
14.629
15.4772
16.3708
17.3121
18.3033
19.3472
20.4467
21.6037
22.8207
24.1002
25.4471
26.8654
28.3591
29.9323
31.5893
33.3338
35.1697
37.101
39.132
41.2674
43.5116
45.8694
48.3456
50.9448
53.6721
56.5323
59.5303
62.6708
65.9587
69.3985
72.9948
76.7518
80.6736
84.7638
89.0259
93.463
98.0776
102.872
107.847
113.006
118.347
123.871
129.577
135.464
141.529
147.77
154.184
160.765
167.508
174.409
181.459
188.652
195.979
203.431
210.998
218.67
226.436
234.283
242.2
250.173
258.188
266.232
274.29
282.346
290.385
298.392
306.35
314.243
322.056
329.772
337.374
344.848
352.176
359.344
366.334
373.133
379.725
386.094
392.227
398.11
403.728
409.07
414.122
418.872
423.311
427.427
431.211
434.654
437.746
440.482
442.855
444.857
446.486
447.737
448.606
449.091
449.191
448.914
448.242
447.197
445.787
444.017
441.895
439.429
436.63
433.508
430.075
426.343
422.328
418.044
413.508
408.736
403.746
398.553
393.178
387.637
381.949
376.132
370.204
364.183
358.085
351.927
345.723
339.489
333.237
326.981
320.734
314.506
308.31
302.155
296.053
290.014
284.046
278.16
272.366
266.674
261.091
255.629
250.298
245.106
240.066
235.188
230.483
225.963
221.642
217.535
213.656
210.031
206.593
203.318
19.0064
7.20907
5.01933
4.30727
4.03864
3.96154
3.9867
4.0799
4.22196
4.4025
4.61515
4.85644
5.12436
5.41797
5.73583
6.07759
6.44308
6.83215
7.24508
7.68313
8.14735
8.63885
9.15899
9.7091
10.2906
10.9052
11.5545
12.2406
12.9656
13.7317
14.5414
15.3975
16.302
17.2572
18.2661
19.3316
20.4563
21.6417
22.8931
24.2157
25.614
27.0925
28.6556
30.308
32.0547
33.9012
35.8518
37.9116
40.0856
42.3795
44.7986
47.3486
50.0352
52.8639
55.8406
58.9709
62.2605
65.7148
69.3395
73.1396
77.1202
81.286
85.6414
90.1902
94.9361
99.882
105.03
110.383
115.942
121.706
127.677
133.853
140.232
146.813
153.591
160.563
167.724
175.068
182.587
190.275
198.123
206.122
214.261
222.529
230.915
239.406
247.989
256.65
265.373
274.145
282.949
291.769
300.589
309.391
318.157
326.872
335.516
344.072
352.521
360.848
369.033
377.059
384.909
392.567
400.015
407.237
414.218
420.941
427.393
433.558
439.423
444.976
450.203
455.094
459.638
463.825
467.646
471.093
474.159
476.836
479.12
481.005
482.488
483.566
484.237
484.498
484.354
483.796
482.822
481.455
479.701
477.566
475.057
472.183
468.956
465.387
461.487
457.27
452.752
447.947
442.872
437.545
431.982
426.202
420.222
414.062
407.74
401.275
394.685
387.99
381.206
374.35
367.44
360.488
353.511
346.521
339.533
332.558
325.609
318.699
311.838
305.039
298.313
291.672
285.127
278.691
272.376
266.195
260.161
254.287
248.588
243.077
237.769
232.679
227.821
223.211
218.859
214.788
210.926
207.264
19.9013
7.46503
5.147
4.38597
4.09082
3.99734
4.01053
4.09394
4.22775
4.40137
4.60801
4.84364
5.1057
5.39242
5.70291
6.03734
6.39588
6.77903
7.18713
7.62095
8.08156
8.57027
9.08858
9.6382
10.2212
10.8388
11.4932
12.1866
12.9216
13.7009
14.527
15.4025
16.3283
17.3092
18.349
19.4517
20.6216
21.863
23.1805
24.5794
26.0648
27.6422
29.3168
31.0945
32.9816
34.9837
37.1066
39.3568
41.7405
44.2645
46.9353
49.7596
52.7438
55.8944
59.218
62.7209
66.4094
70.2896
74.3673
78.648
83.137
87.8389
92.7579
97.8978
103.261
108.851
114.669
120.716
126.992
133.496
140.228
147.184
154.361
161.755
169.362
177.175
185.186
193.389
201.775
210.332
219.052
227.923
236.931
246.064
255.308
264.648
274.068
283.553
293.086
302.649
312.225
321.796
331.343
340.848
350.291
359.653
368.916
378.06
387.065
395.913
404.585
413.063
421.329
429.365
437.154
444.679
451.924
458.874
465.512
471.827
477.803
483.429
488.694
493.585
498.095
502.213
505.933
509.248
512.151
514.637
516.702
518.342
519.555
520.342
520.699
520.626
520.126
519.176
517.81
516.032
513.848
511.266
508.294
504.942
501.22
497.142
492.718
487.963
482.892
477.522
471.867
465.947
459.778
453.379
446.767
439.961
432.982
425.847
418.577
411.189
403.703
396.136
388.504
380.824
373.11
365.376
357.637
349.907
342.198
334.525
326.899
319.335
311.845
304.443
297.144
289.962
282.912
276.009
269.271
262.715
256.356
250.213
244.304
238.647
233.257
228.15
223.332
218.827
214.558
210.538
20.5275
7.63509
5.22468
4.42783
4.11271
4.00612
4.01004
4.08662
4.21467
4.38249
4.5833
4.81362
5.07122
5.35477
5.66331
5.99667
6.35521
6.73897
7.1486
7.58516
8.04998
8.54462
9.07082
9.63041
10.2252
10.8561
11.5265
12.2396
12.9983
13.8061
14.6663
15.5829
16.5596
17.6005
18.7102
19.8936
21.1561
22.5031
23.9403
25.474
27.1104
28.8559
30.7173
32.7015
34.816
37.0673
39.4629
42.0107
44.7187
47.5952
50.6481
53.8847
57.3121
60.9372
64.7668
68.8077
73.0661
77.5482
82.2594
87.2048
92.3889
97.8156
103.488
109.408
115.578
121.998
128.668
135.588
142.754
150.165
157.816
165.703
173.82
182.16
190.716
199.479
208.44
217.588
226.912
236.4
246.038
255.813
265.71
275.714
285.808
295.976
306.201
316.463
326.746
337.03
347.296
357.524
367.695
377.789
387.785
397.664
407.405
416.988
426.395
435.604
444.597
453.356
461.861
470.096
478.043
485.686
493.008
499.995
506.632
512.906
518.804
524.316
529.43
534.137
538.43
542.301
545.743
548.752
551.324
553.455
555.143
556.384
557.18
557.535
557.442
556.909
555.906
554.469
552.603
550.314
547.608
544.494
540.98
537.075
532.792
528.143
523.14
517.797
512.129
506.153
499.884
493.34
486.538
479.496
472.232
464.765
457.114
449.299
441.339
433.253
425.06
416.778
408.424
400.015
391.565
383.089
374.603
366.121
357.657
349.226
340.842
332.52
324.273
316.119
308.074
300.154
292.378
284.764
277.333
270.105
263.099
256.337
249.84
243.629
237.722
232.133
226.869
221.951
217.299
212.958
20.9773
7.74951
5.26701
4.44224
4.11246
3.9972
3.99451
4.06517
4.18933
4.35582
4.55734
4.78966
5.05041
5.33823
5.65244
5.9928
6.35936
6.75197
7.17225
7.62173
8.10216
8.61557
9.16421
9.75064
10.3777
11.0485
11.7661
12.5345
13.3576
14.2398
15.1858
16.2007
17.2899
18.4588
19.7134
21.0601
22.5059
24.0577
25.7232
27.51
29.4261
31.4796
33.6786
36.0311
38.5446
41.228
44.0909
47.1426
50.3932
53.8537
57.534
61.4401
65.5783
69.9547
74.5753
79.4456
84.5708
89.9551
95.6024
101.515
107.696
114.146
120.865
127.852
135.106
142.624
150.402
158.436
166.72
175.248
184.013
193.007
202.219
211.642
221.264
231.072
241.057
251.203
261.497
271.925
282.472
293.121
303.856
314.66
325.516
336.406
347.31
358.21
369.087
379.92
390.691
401.379
411.964
422.426
432.745
442.901
452.874
462.644
472.192
481.498
490.544
499.312
507.783
515.942
523.772
531.256
538.382
545.133
551.496
557.462
563.018
568.154
572.863
577.135
580.967
584.351
587.283
589.763
591.787
593.354
594.463
595.113
595.303
595.058
594.341
593.16
591.535
589.472
586.977
584.056
580.718
576.969
572.819
568.277
563.355
558.065
552.419
546.431
540.114
533.487
526.563
519.361
511.897
504.187
496.25
488.104
479.767
471.26
462.602
453.811
444.907
435.908
426.832
417.695
408.512
399.3
390.072
380.845
371.634
362.454
353.322
344.251
335.261
326.368
317.591
308.949
300.463
292.155
284.048
276.169
268.537
261.177
254.115
247.375
240.962
234.904
229.208
223.896
218.883
214.261
21.2089
7.78384
5.26667
4.43265
4.09761
3.97882
3.97742
4.05264
4.18312
4.35714
4.56675
4.80884
5.0814
5.3834
5.71452
6.07506
6.46592
6.88822
7.3436
7.83423
8.36266
8.93188
9.54522
10.2065
10.9198
11.6898
12.5214
13.4199
14.3911
15.4414
16.5774
17.8065
19.1362
20.5746
22.1303
23.8122
25.6297
27.5924
29.7104
31.9935
34.4519
37.0955
39.9343
42.9778
46.2352
49.7162
53.4306
57.3878
61.5971
66.0674
70.8115
75.833
81.1339
86.7163
92.5822
98.7328
105.169
111.889
118.893
126.179
133.742
141.578
149.683
158.05
166.672
175.542
184.651
193.989
203.548
213.316
223.283
233.437
243.766
254.258
264.9
275.677
286.577
297.584
308.683
319.86
331.097
342.378
353.688
365.009
376.323
387.613
398.86
410.047
421.155
432.164
443.056
453.812
464.414
474.843
485.079
495.104
504.9
514.449
523.731
532.731
541.429
549.81
557.857
565.556
572.891
579.849
586.417
592.581
598.33
603.656
608.549
613.003
617.008
620.56
623.658
626.295
628.469
630.186
631.44
632.232
632.568
632.441
631.873
630.817
629.329
627.396
625.026
622.226
619.004
615.366
611.32
606.873
602.033
596.808
591.211
585.251
578.941
572.293
565.321
558.041
550.468
542.617
534.504
526.145
517.556
508.756
499.762
490.593
481.269
471.808
462.23
452.552
442.792
432.967
423.092
413.183
403.255
393.324
383.407
373.52
363.681
353.905
344.212
334.623
325.158
315.837
306.683
297.724
288.983
280.478
272.243
264.31
256.71
249.472
242.633
236.188
230.142
224.517
219.219
214.398
21.2611
7.76267
5.24202
4.40906
4.081
3.97326
3.98359
4.07135
4.21676
4.40889
4.64155
4.91123
5.21628
5.55626
5.93165
6.34367
6.79425
7.28586
7.82154
8.40494
9.04033
9.73257
10.4871
11.3099
12.2076
13.1878
14.2582
15.4275
16.7047
18.0997
19.6231
21.2861
23.1001
25.0774
27.2299
29.5703
32.1111
34.8651
37.8445
41.0609
44.5255
48.2491
52.2419
56.5122
61.0676
65.9151
71.0619
76.5132
82.2733
88.3481
94.7407
101.45
108.466
115.782
123.392
131.289
139.463
147.908
156.614
165.571
174.768
184.194
193.839
203.691
213.737
223.966
234.365
244.923
255.626
266.463
277.42
288.487
299.649
310.894
322.21
333.583
345
356.448
367.913
379.38
390.836