/*--------------------------------*- C++ -*----------------------------------*\
| =========                 |                                                 |
| \\      /  F ield         | OpenFOAM: The Open Source CFD Toolbox           |
|  \\    /   O peration     | Version:  2212                                  |
|   \\  /    A nd           | Website:  www.openfoam.com                      |
|    \\/     M anipulation  |                                                 |
\*---------------------------------------------------------------------------*/
FoamFile
{
    version     2.0;
    format      ascii;
    arch        "LSB;label=32;scalar=64";
    class       volScalarField;
    location    "200";
    object      k;
}
// * * * * * * * * * * * * * * * * * * * * * * * * * * * * * * * * * * * * * //

dimensions      [0 2 -2 0 0 0 0];

internalField   nonuniform List<scalar> 
12225
(
0.571497
0.987648
1.28116
1.45558
1.54167
1.57743
1.57567
1.56724
1.54714
1.52373
1.50047
1.47801
1.45796
1.43901
1.42339
1.40766
1.39704
1.38229
0.43845
0.49688
0.521949
0.534909
0.542875
0.547415
0.550224
0.552223
0.556066
0.559381
0.565608
0.571057
0.579591
0.586815
0.596792
0.605226
0.615302
0.625144
0.38757
0.417492
0.424187
0.421531
0.415046
0.404958
0.393815
0.382791
0.371954
0.362407
0.353263
0.346091
0.338997
0.334322
0.329128
0.326692
0.323051
0.322332
0.37618
0.384817
0.388124
0.387417
0.385436
0.381134
0.375688
0.369558
0.363119
0.356561
0.35011
0.343803
0.33782
0.332065
0.326778
0.321681
0.317168
0.312721
0.374178
0.375374
0.376397
0.37593
0.374799
0.372507
0.369616
0.366136
0.362485
0.358471
0.354556
0.350372
0.34652
0.342386
0.338792
0.334823
0.331603
0.327851
0.373737
0.372544
0.371996
0.371083
0.369917
0.368266
0.366339
0.364032
0.36164
0.358968
0.356373
0.353537
0.350916
0.348048
0.345521
0.342703
0.340347
0.337628
0.373769
0.371726
0.370231
0.368831
0.367465
0.36594
0.364344
0.362552
0.360734
0.35875
0.356813
0.354731
0.352769
0.350666
0.348748
0.346673
0.344852
0.342831
0.373818
0.371563
0.369621
0.36786
0.36625
0.364663
0.363122
0.361522
0.359945
0.358298
0.356695
0.355026
0.353429
0.351769
0.350213
0.348588
0.347103
0.345524
0.373833
0.371554
0.369458
0.367511
0.365722
0.364025
0.362428
0.360861
0.359355
0.357852
0.356401
0.354943
0.353541
0.35213
0.350785
0.349426
0.348149
0.346843
0.373832
0.37156
0.369425
0.36741
0.365529
0.363752
0.362086
0.360493
0.358981
0.357516
0.356115
0.354748
0.353437
0.352151
0.350919
0.349706
0.348551
0.347405
0.37383
0.371561
0.369417
0.367384
0.365468
0.363653
0.361942
0.360317
0.358779
0.357309
0.355912
0.35457
0.353289
0.352054
0.350872
0.349729
0.348635
0.347574
0.373828
0.371559
0.369412
0.367375
0.365448
0.36362
0.36189
0.360247
0.358691
0.35721
0.355803
0.35446
0.353181
0.351958
0.35079
0.34967
0.348599
0.347571
0.373827
0.371557
0.369407
0.367369
0.365437
0.363603
0.361865
0.360214
0.358646
0.357156
0.35574
0.354391
0.353107
0.351884
0.350716
0.349602
0.348537
0.347521
0.373827
0.371555
0.369403
0.367362
0.365428
0.363591
0.361848
0.360193
0.358619
0.357123
0.3557
0.354346
0.353056
0.351828
0.350657
0.349541
0.348475
0.347459
0.373826
0.371553
0.369399
0.367357
0.36542
0.363581
0.361835
0.360177
0.3586
0.3571
0.355673
0.354315
0.353021
0.351789
0.350614
0.349494
0.348425
0.347406
0.373826
0.371552
0.369396
0.367352
0.365413
0.363572
0.361824
0.360163
0.358584
0.357082
0.355652
0.354291
0.352994
0.351759
0.350581
0.349458
0.348386
0.347364
0.373825
0.371551
0.369395
0.367349
0.365408
0.363566
0.361816
0.360153
0.358571
0.357067
0.355635
0.354272
0.352973
0.351735
0.350555
0.34943
0.348356
0.347331
0.373825
0.371551
0.369393
0.367347
0.365405
0.363561
0.36181
0.360145
0.358563
0.357057
0.355623
0.354258
0.352958
0.351718
0.350536
0.349409
0.348334
0.347308
0.373825
0.371551
0.369393
0.367347
0.365404
0.36356
0.361808
0.360143
0.358559
0.357052
0.355618
0.354252
0.352951
0.35171
0.350528
0.3494
0.348324
0.347297
0.373825
0.371551
0.369394
0.367348
0.365406
0.363562
0.361811
0.360146
0.358562
0.357056
0.355622
0.354256
0.352955
0.351715
0.350532
0.349405
0.348329
0.347302
0.373826
0.371552
0.369396
0.367351
0.36541
0.363567
0.361816
0.360153
0.358571
0.357065
0.355633
0.354269
0.352969
0.35173
0.35055
0.349423
0.348349
0.347323
0.373826
0.371553
0.369398
0.367355
0.365416
0.363575
0.361828
0.360168
0.358591
0.357092
0.355665
0.354306
0.353012
0.351779
0.350603
0.34948
0.348408
0.347383
0.373826
0.371555
0.369401
0.367363
0.365432
0.363605
0.361875
0.360237
0.358681
0.357203
0.355794
0.354451
0.353167
0.351939
0.350762
0.349635
0.348552
0.347512
0.373826
0.371556
0.369413
0.367418
0.365545
0.363794
0.362138
0.360572
0.359071
0.357632
0.35624
0.354896
0.353589
0.352323
0.35109
0.349894
0.348728
0.347601
0.373819
0.371564
0.369582
0.367846
0.366223
0.364712
0.363219
0.361754
0.360267
0.358787
0.357288
0.3558
0.354306
0.352833
0.351361
0.349924
0.348495
0.347109
0.373767
0.371946
0.370917
0.369977
0.368913
0.367767
0.366326
0.364737
0.362934
0.361062
0.35906
0.357054
0.354971
0.352925
0.350845
0.348825
0.346792
0.344839
0.374093
0.375201
0.37726
0.37756
0.377092
0.375804
0.373488
0.370864
0.367802
0.364686
0.361328
0.358027
0.354602
0.351291
0.347922
0.3447
0.341472
0.338414
0.377677
0.394076
0.402944
0.402353
0.400307
0.396045
0.390666
0.385166
0.379133
0.373303
0.367221
0.361476
0.355719
0.350305
0.345128
0.340198
0.335726
0.331325
0.405777
0.438977
0.451189
0.45581
0.459111
0.462261
0.464972
0.467229
0.469224
0.470844
0.472492
0.473929
0.475548
0.477075
0.479213
0.480839
0.483679
0.485395
0.479012
0.684927
0.865146
0.990809
1.09437
1.17583
1.23938
1.28341
1.31504
1.33207
1.3432
1.34353
1.34141
1.33629
1.32784
1.31773
1.3068
1.29535
0.00434225
0.00711321
0.0100304
0.0125639
0.0146174
0.0162351
0.0175772
0.0188046
0.0199212
0.0209824
0.0220453
0.0231653
0.0244137
0.0259113
0.0277193
0.0297581
0.0319611
0.0343146
0.0368249
0.0395104
0.042385
0.0454649
0.0487565
0.052269
0.0560032
0.0599679
0.0641679
0.0685789
0.0731756
0.0779537
0.0828995
0.0880131
0.0932841
0.0987137
0.104292
0.110024
0.115901
0.121937
0.128144
0.134557
0.141212
0.14818
0.155326
0.162639
0.170114
0.177764
0.185582
0.193578
0.201746
0.210097
0.218622
0.227333
0.236222
0.245299
0.254555
0.264001
0.273626
0.28344
0.293433
0.303614
0.31397
0.324511
0.335223
0.346116
0.357173
0.368403
0.37979
0.391341
0.403038
0.414888
0.426873
0.438998
0.451243
0.463613
0.476087
0.488668
0.501334
0.514089
0.52691
0.539798
0.55273
0.565706
0.578701
0.591715
0.604722
0.617719
0.630678
0.643596
0.656446
0.669215
0.681877
0.694408
0.706779
0.718964
0.730934
0.742662
0.754136
0.765378
0.776478
0.787329
0.79793
0.808259
0.818309
0.828057
0.837488
0.846584
0.855327
0.863701
0.871687
0.879269
0.886431
0.893156
0.899428
0.905234
0.910559
0.915389
0.919715
0.923523
0.926805
0.929553
0.931762
0.93343
0.934559
0.935148
0.935201
0.934691
0.933509
0.931781
0.929685
0.92709
0.92387
0.92017
0.915972
0.911298
0.90617
0.900606
0.894631
0.888267
0.881539
0.874475
0.867134
0.859546
0.851743
0.843761
0.835633
0.827395
0.819081
0.810727
0.802368
0.794035
0.785762
0.777581
0.769525
0.761624
0.753906
0.746398
0.739126
0.732111
0.725375
0.718932
0.712799
0.70698
0.701489
0.696329
0.691495
0.686982
0.682943
0.681177
0.681319
0.681476
0.682017
0.68287
0.683976
0.685253
0.686641
0.688022
0.689124
0.689285
0.687429
0.667276
0.0107827
0.0176313
0.0242798
0.029407
0.0336641
0.0373783
0.0407279
0.0438776
0.047012
0.0502471
0.0536477
0.0572439
0.0610453
0.0650487
0.0692458
0.0736312
0.0782021
0.0829676
0.0879455
0.0931595
0.0986325
0.104386
0.110435
0.116793
0.123469
0.130468
0.137794
0.145447
0.153425
0.161726
0.170343
0.179277
0.188529
0.198102
0.207996
0.218219
0.228755
0.239588
0.25072
0.262154
0.273889
0.285925
0.29825
0.310871
0.323792
0.337021
0.350561
0.364419
0.378598
0.393105
0.407943
0.423117
0.438629
0.454487
0.47069
0.487246
0.504153
0.521418
0.539039
0.557019
0.575358
0.594058
0.613115
0.632531
0.652302
0.672427
0.6929
0.713719
0.734877
0.75637
0.778188
0.800327
0.822775
0.845526
0.868565
0.891884
0.915468
0.939306
0.963381
0.987681
1.01219
1.03689
1.06175
1.08678
1.11193
1.13719
1.16254
1.18796
1.21341
1.23887
1.26431
1.28969
1.31498
1.34012
1.36508
1.38979
1.4142
1.43822
1.46175
1.48495
1.50783
1.53035
1.5525
1.57423
1.59551
1.6163
1.63656
1.65627
1.67537
1.69384
1.71164
1.72872
1.74505
1.76059
1.77532
1.78918
1.80216
1.81422
1.82533
1.83547
1.84461
1.85274
1.85984
1.8659
1.87093
1.87493
1.87763
1.87907
1.87968
1.87949
1.87801
1.87548
1.87191
1.86735
1.86182
1.85535
1.848
1.8398
1.83081
1.82109
1.81071
1.79974
1.78823
1.77625
1.76387
1.75116
1.73819
1.72503
1.71176
1.69844
1.68514
1.67193
1.65889
1.64608
1.63355
1.62138
1.60962
1.59833
1.58754
1.57731
1.56768
1.55866
1.55029
1.54258
1.53553
1.52913
1.52342
1.51867
1.51472
1.51148
1.50882
1.50662
1.50472
1.50296
1.50115
1.49912
1.49649
1.49314
1.48623
1.46306
0.0167599
0.0285816
0.0375761
0.0443341
0.0500276
0.0551611
0.0600097
0.0647595
0.0695468
0.0744653
0.0795708
0.0848913
0.090436
0.0962053
0.102197
0.108413
0.114858
0.121547
0.128498
0.135737
0.143286
0.151168
0.159402
0.168003
0.176985
0.186356
0.196124
0.206293
0.216864
0.227836
0.239204
0.250969
0.263128
0.27568
0.288622
0.30195
0.31566
0.32975
0.344217
0.359063
0.374286
0.389886
0.405864
0.422223
0.438968
0.456104
0.473635
0.491567
0.509903
0.528649
0.547809
0.567386
0.587385
0.607808
0.628658
0.649939
0.671652
0.693798
0.716377
0.739392
0.762839
0.786718
0.811028
0.835765
0.860925
0.886504
0.912496
0.938895
0.965693
0.992883
1.02045
1.0484
1.0767
1.10535
1.13433
1.16363
1.19324
1.22313
1.25329
1.2837
1.31434
1.34519
1.37622
1.40741
1.43875
1.47019
1.50171
1.53329
1.56489
1.59649
1.62804
1.65952
1.69087
1.72208
1.75308
1.78386
1.81436
1.84455
1.87442
1.90394
1.93307
1.96176
1.98999
2.01771
2.04486
2.0714
2.09729
2.12248
2.14692
2.17057
2.19337
2.21528
2.23625
2.25623
2.27518
2.29305
2.30981
2.3254
2.3398
2.35298
2.36488
2.37551
2.38483
2.39282
2.39947
2.40478
2.40871
2.41103
2.412
2.41196
2.41043
2.40754
2.40335
2.39789
2.39119
2.3833
2.37428
2.36419
2.35308
2.34104
2.32814
2.31445
2.30007
2.28507
2.26954
2.25357
2.23724
2.22063
2.20385
2.18698
2.17009
2.1533
2.13666
2.12028
2.10422
2.08857
2.07339
2.05874
2.0447
2.0313
2.0186
2.00664
1.99543
1.985
1.97535
1.96647
1.95836
1.95104
1.94447
1.9386
1.93329
1.9284
1.9238
1.91929
1.91472
1.90994
1.90474
1.8992
1.89118
1.87321
0.0215388
0.0391498
0.0504318
0.0586863
0.0655892
0.0718129
0.0777132
0.0835117
0.089358
0.0953529
0.101558
0.108008
0.114715
0.121684
0.128915
0.136412
0.144186
0.152251
0.160629
0.169343
0.178418
0.187876
0.197736
0.208015
0.218726
0.229878
0.241473
0.253514
0.265997
0.278925
0.292298
0.306117
0.320378
0.335081
0.35022
0.365795
0.381802
0.398241
0.415109
0.432408
0.450138
0.4683
0.486896
0.505931
0.525409
0.545335
0.565714
0.586552
0.607854
0.629625
0.651868
0.67459
0.697792
0.72148
0.745656
0.770323
0.795484
0.821139
0.84729
0.873937
0.901079
0.928714
0.956841
0.985455
1.01455
1.04413
1.07418
1.1047
1.13567
1.16709
1.19895
1.23124
1.26393
1.29703
1.33051
1.36435
1.39854
1.43307
1.4679
1.50301
1.53839
1.57401
1.60985
1.64587
1.68204
1.71835
1.75475
1.79122
1.82772
1.86421
1.90067
1.93705
1.97331
2.00942
2.04534
2.08103
2.11645
2.15155
2.18631
2.22067
2.25459
2.28802
2.3209
2.3532
2.38485
2.41581
2.44601
2.47541
2.50395
2.53158
2.55823
2.58386
2.60841
2.63183
2.65406
2.67506
2.69476
2.71313
2.73013
2.7457
2.75982
2.77246
2.78357
2.79315
2.80118
2.80764
2.81252
2.81568
2.8171
2.81726
2.81578
2.81273
2.80815
2.80208
2.79457
2.78566
2.77542
2.76391
2.7512
2.73737
2.72252
2.70672
2.69007
2.67267
2.6546
2.63598
2.61689
2.59744
2.57773
2.55787
2.53794
2.51805
2.49829
2.47876
2.45954
2.44072
2.42239
2.40461
2.38745
2.37097
2.35523
2.34027
2.32611
2.31277
2.30025
2.28854
2.27761
2.26744
2.25799
2.2492
2.24095
2.2331
2.22553
2.21809
2.21064
2.20312
2.19545
2.18784
2.17874
2.16354
0.0253052
0.0488714
0.0625122
0.0722757
0.0803428
0.0875516
0.0943373
0.100964
0.107605
0.11438
0.121366
0.128609
0.136136
0.143959
0.152086
0.160527
0.169292
0.178398
0.187864
0.197712
0.207963
0.218638
0.229752
0.241322
0.253356
0.265862
0.278845
0.292307
0.306251
0.320676
0.335584
0.350972
0.366839
0.383183
0.400003
0.417297
0.435065
0.453306
0.47202
0.491208
0.510872
0.531015
0.55164
0.572752
0.594358
0.616465
0.639077
0.662201
0.685843
0.710009
0.734704
0.759934
0.785704
0.812017
0.838879
0.866293
0.894261
0.922786
0.95187
0.981513
1.01172
1.04248
1.07379
1.10566
1.13808
1.17105
1.20455
1.23859
1.27315
1.30822
1.34379
1.37985
1.41639
1.45338
1.49082
1.52868
1.56694
1.60558
1.64459
1.68392
1.72357
1.7635
1.80368
1.84408
1.88467
1.92541
1.96628
2.00724
2.04824
2.08925
2.13024
2.17116
2.21197
2.25262
2.29308
2.33329
2.37322
2.41281
2.45202
2.49078
2.52906
2.56679
2.60392
2.64039
2.67615
2.71114
2.74529
2.77854
2.81084
2.84212
2.87233
2.9014
2.92927
2.95588
2.98117
3.00509
3.02757
3.04857
3.06804
3.08592
3.10218
3.11678
3.12968
3.14086
3.15029
3.15795
3.16385
3.16792
3.16999
3.17047
3.1692
3.16615
3.16138
3.15491
3.14679
3.13708
3.12584
3.11314
3.09905
3.08367
3.06709
3.04939
3.03068
3.01106
2.99064
2.96953
2.94783
2.92566
2.90312
2.88033
2.85739
2.83441
2.81151
2.78877
2.7663
2.74419
2.72253
2.70141
2.68089
2.66105
2.64194
2.6236
2.60606
2.58936
2.57348
2.55842
2.54415
2.53063
2.51782
2.50566
2.49405
2.48286
2.472
2.46134
2.45081
2.44041
2.43015
2.42033
2.40976
2.39525
0.0283439
0.0576204
0.0735072
0.0847295
0.0939113
0.102039
0.109619
0.116954
0.124246
0.131635
0.139215
0.147051
0.155183
0.163638
0.172433
0.181582
0.191099
0.201001
0.211304
0.222029
0.233191
0.244808
0.256893
0.26946
0.282517
0.296071
0.310127
0.324688
0.339756
0.355332
0.371417
0.388012
0.405114
0.422726
0.440845
0.459473
0.478611
0.498259
0.518421
0.539099
0.560297
0.58202
0.604273
0.627063
0.650397
0.674282
0.698725
0.723733
0.749313
0.775474
0.802221
0.829562
0.857503
0.886049
0.915207
0.94498
0.975374
1.00639
1.03804
1.07031
1.10321
1.13674
1.1709
1.20569
1.2411
1.27714
1.31378
1.35103
1.38888
1.42731
1.46632
1.50589
1.54601
1.58666
1.62781
1.66946
1.71158
1.75414
1.79712
1.84049
1.88422
1.92828
1.97265
2.01727
2.06213
2.10718
2.15238
2.19769
2.24308
2.28849
2.33389
2.37923
2.42447
2.46954
2.51441
2.55902
2.60332
2.64725
2.69075
2.73378
2.77627
2.81816
2.8594
2.89991
2.93964
2.97853
3.0165
3.0535
3.08945
3.12429
3.15796
3.19039
3.2215
3.25124
3.27955
3.30635
3.33159
3.3552
3.37714
3.39735
3.41577
3.43238
3.44711
3.45996
3.47087
3.47984
3.48685
3.49189
3.49476
3.49572
3.49478
3.49188
3.48704
3.48031
3.47173
3.46135
3.44924
3.43547
3.42013
3.4033
3.38508
3.36556
3.34486
3.32308
3.30033
3.27674
3.25241
3.22748
3.20204
3.17624
3.15017
3.12397
3.09774
3.07159
3.04563
3.01996
2.99468
2.96988
2.94563
2.92201
2.89908
2.8769
2.8555
2.83492
2.81515
2.79621
2.77806
2.76067
2.74401
2.72802
2.71262
2.69773
2.68325
2.66912
2.6553
2.64184
2.62885
2.61661
2.60413
2.58905
0.0322479
0.0654943
0.083297
0.0958144
0.106006
0.114971
0.123269
0.131235
0.139093
0.147
0.155067
0.163377
0.171982
0.180924
0.190228
0.199916
0.210005
0.220513
0.231454
0.242846
0.254702
0.267036
0.27986
0.293185
0.307019
0.321368
0.336237
0.35163
0.367551
0.384001
0.400982
0.418497
0.436546
0.455132
0.474256
0.493922
0.514131
0.534888
0.556197
0.578064
0.600494
0.623494
0.647072
0.671235
0.695993
0.721353
0.747324
0.773916
0.801137
0.828997
0.857504
0.886667
0.916494
0.946992
0.97817
1.01003
1.04259
1.07584
1.10979
1.14445
1.17982
1.2159
1.25268
1.29018
1.32838
1.36728
1.40688
1.44717
1.48815
1.52979
1.57209
1.61504
1.65861
1.70279
1.74756
1.7929
1.83878
1.88518
1.93206
1.97939
2.02715
2.0753
2.1238
2.17262
2.2217
2.27102
2.32052
2.37017
2.41991
2.4697
2.51948
2.56921
2.61883
2.66829
2.71753
2.76649
2.81511
2.86332
2.91108
2.95831
3.00496
3.05096
3.09624
3.14074
3.18439
3.22711
3.26885
3.30953
3.34908
3.38744
3.42452
3.46025
3.49458
3.52742
3.55871
3.58838
3.61636
3.64259
3.66701
3.68956
3.71018
3.72882
3.74544
3.76
3.77247
3.78281
3.79102
3.79707
3.80086
3.80242
3.80192
3.79926
3.79447
3.78757
3.77861
3.76766
3.75477
3.74001
3.72348
3.70526
3.68544
3.66414
3.64146
3.61752
3.59243
3.56631
3.5393
3.51151
3.48308
3.45412
3.42478
3.39516
3.36539
3.33558
3.30586
3.27633
3.24709
3.21824
3.18987
3.16206
3.13488
3.10839
3.08266
3.0577
3.03355
3.01022
2.9877
2.96598
2.94501
2.92477
2.90521
2.88626
2.86789
2.85004
2.83274
2.81607
2.80017
2.78532
2.77061
2.75421
0.0370027
0.0724276
0.0917681
0.105376
0.116443
0.126152
0.135094
0.143629
0.151994
0.16036
0.168851
0.17756
0.186554
0.195885
0.205586
0.215688
0.226209
0.23717
0.248586
0.260471
0.272838
0.2857
0.299066
0.312946
0.327348
0.342278
0.357741
0.373744
0.39029
0.407383
0.425027
0.443226
0.461983
0.481303
0.501189
0.521648
0.542685
0.564305
0.586515
0.609323
0.632738
0.656768
0.681423
0.706712
0.732648
0.759239
0.786498
0.814435
0.843061
0.872389
0.902428
0.933191
0.964686
0.996924
1.02992
1.06367
1.09819
1.13349
1.16958
1.20645
1.24412
1.28259
1.32185
1.36192
1.40278
1.44443
1.48688
1.53011
1.57412
1.61889
1.66441
1.71066
1.75763
1.8053
1.85364
1.90263
1.95225
2.00245
2.05322
2.10451
2.15629
2.20851
2.26115
2.31415
2.36747
2.42106
2.47487
2.52885
2.58294
2.6371
2.69127
2.74538
2.79937
2.8532
2.90678
2.96006
3.01296
3.06543
3.1174
3.16879
3.21955
3.26959
3.31886
3.36728
3.41477
3.46128
3.50671
3.551
3.59407
3.63585
3.67627
3.71525
3.75271
3.78859
3.8228
3.85529
3.88596
3.91477
3.94163
3.96649
3.98929
4.00997
4.02848
4.04478
4.05882
4.07057
4.08001
4.08712
4.09184
4.09411
4.09412
4.09179
4.08711
4.08011
4.07085
4.05939
4.04577
4.03009
4.01242
3.99285
3.97148
3.94841
3.92376
3.89764
3.87018
3.8415
3.81174
3.78102
3.74948
3.71725
3.68447
3.65125
3.61774
3.58405
3.55031
3.51663
3.48312
3.4499
3.41705
3.38467
3.35285
3.32165
3.29115
3.2614
3.23244
3.20429
3.17697
3.15049
3.12483
3.09999
3.07595
3.05268
3.03016
3.00841
2.98747
2.96745
2.94851
2.9309
2.91374
2.89559
0.041386
0.0781945
0.0987919
0.113317
0.125134
0.135492
0.145007
0.154053
0.162877
0.171656
0.180525
0.189583
0.198907
0.208556
0.218571
0.228988
0.239831
0.251122
0.262876
0.275109
0.287833
0.301059
0.314798
0.329059
0.34385
0.359178
0.375049
0.391471
0.408448
0.425988
0.444096
0.462778
0.482041
0.501891
0.522335
0.543381
0.565038
0.587313
0.610217
0.633759
0.65795
0.682803
0.708328
0.73454
0.76145
0.789073
0.817422
0.84651
0.876353
0.906963
0.938355
0.970542
1.00354
1.03735
1.072
1.10749
1.14384
1.18106
1.21915
1.25812
1.29798
1.33873
1.38038
1.42292
1.46637
1.51071
1.55594
1.60206
1.64905
1.69691
1.74561
1.79515
1.8455
1.89664
1.94854
2.00119
2.05454
2.10856
2.16321
2.21847
2.27428
2.3306
2.38738
2.44458
2.50214
2.56
2.61812
2.67643
2.73488
2.7934
2.85192
2.91039
2.96873
3.02688
3.08476
3.14231
3.19944
3.25609
3.31219
3.36767
3.42244
3.47644
3.52959
3.58181
3.63304
3.68319
3.73219
3.77995
3.82642
3.87149
3.91511
3.95719
3.99766
4.03644
4.07345
4.10862
4.14187
4.17314
4.20235
4.22944
4.25433
4.27698
4.29732
4.31531
4.33089
4.34403
4.3547
4.36286
4.36851
4.37154
4.3721
4.37013
4.36561
4.35857
4.34905
4.33712
4.32284
4.30628
4.28752
4.26664
4.24375
4.21894
4.19234
4.16406
4.13423
4.10297
4.07043
4.03672
4.002
3.96641
3.93007
3.89312
3.8557
3.81795
3.77998
3.74193
3.70391
3.66604
3.62843
3.59118
3.5544
3.51816
3.48255
3.44765
3.41352
3.3802
3.34774
3.31618
3.28552
3.25579
3.22701
3.19919
3.17235
3.14654
3.12183
3.09836
3.07628
3.0558
3.03608
3.01591
0.0452528
0.0827836
0.104371
0.119646
0.13209
0.143
0.153014
0.162511
0.171743
0.180894
0.190098
0.199462
0.209067
0.218976
0.229238
0.239891
0.250964
0.262481
0.274461
0.286919
0.299869
0.313322
0.327289
0.341781
0.356807
0.372375
0.388493
0.40517
0.422413
0.440232
0.458634
0.477629
0.497225
0.517431
0.538259
0.559718
0.58182
0.604576
0.627999
0.652101
0.676896
0.702399
0.728626
0.755592
0.783313
0.811806
0.841088
0.871176
0.902087
0.933838
0.966445
0.999926
1.0343
1.06957
1.10577
1.1429
1.18098
1.22002
1.26003
1.30102
1.34301
1.38599
1.42997
1.47496
1.52096
1.56795
1.61595
1.66494
1.71491
1.76585
1.81774
1.87057
1.92431
1.97893
2.03442
2.09073
2.14783
2.20568
2.26424
2.32348
2.38333
2.44374
2.50468
2.56607
2.62786
2.68999
2.7524
2.81501
2.87777
2.9406
3.00343
3.06618
3.12879
3.19118
3.25326
3.31496
3.37621
3.43692
3.49701
3.55641
3.61504
3.67282
3.72967
3.78552
3.84028
3.89388
3.94623
3.99726
4.04689
4.09504
4.14164
4.18659
4.22984
4.2713
4.31089
4.34853
4.38416
4.4177
4.44907
4.47821
4.50505
4.52952
4.55156
4.57112
4.58815
4.6026
4.61443
4.62361
4.63012
4.63392
4.63503
4.63345
4.62912
4.62204
4.6123
4.59995
4.58505
4.56766
4.54786
4.52573
4.50137
4.47488
4.44637
4.41597
4.38379
4.34997
4.31464
4.27794
4.24001
4.201
4.16105
4.1203
4.07888
4.03695
3.99463
3.95205
3.90936
3.86666
3.82409
3.78175
3.73978
3.69826
3.6573
3.61699
3.57743
3.53869
3.50084
3.46394
3.42805
3.39323
3.35952
3.32699
3.29569
3.26571
3.23714
3.21014
3.18485
3.16146
3.13915
3.11698
0.0485664
0.0862566
0.108583
0.124447
0.137394
0.148758
0.159189
0.16907
0.178655
0.188126
0.197621
0.207246
0.217084
0.227201
0.23765
0.248471
0.259698
0.271355
0.283465
0.296045
0.309109
0.322672
0.336745
0.351341
0.366471
0.382145
0.398373
0.415166
0.432536
0.450492
0.469045
0.488209
0.507995
0.528415
0.549482
0.571211
0.593616
0.61671
0.64051
0.665033
0.690294
0.716314
0.743111
0.770704
0.799113
0.828359
0.858461
0.889441
0.921319
0.954116
0.987851
1.02254
1.05822
1.09489
1.13257
1.17129
1.21105
1.25188
1.29379
1.33679
1.38089
1.42609
1.47241
1.51985
1.56841
1.61808
1.66886
1.72075
1.77372
1.82778
1.88289
1.93904
1.9962
2.05434
2.11343
2.17343
2.23431
2.29601
2.35849
2.4217
2.48558
2.55009
2.61514
2.6807
2.74668
2.81301
2.87963
2.94647
3.01343
3.08046
3.14747
3.21438
3.2811
3.34756
3.41367
3.47934
3.54449
3.60903
3.67289
3.73597
3.7982
3.8595
3.91978
3.97895
4.03695
4.09369
4.14909
4.20306
4.25554
4.30644
4.35568
4.40319
4.44889
4.4927
4.53455
4.57437
4.61207
4.64759
4.68085
4.71178
4.74031
4.76637
4.78991
4.81086
4.82916
4.84477
4.85765
4.86775
4.87506
4.87953
4.88118
4.87998
4.87584
4.86874
4.8588
4.84606
4.83058
4.81241
4.79163
4.76832
4.74257
4.71447
4.68413
4.65167
4.61721
4.58088
4.54282
4.50317
4.46207
4.41967
4.37612
4.33155
4.28613
4.23998
4.19326
4.1461
4.09865
4.05104
4.0034
3.95587
3.90858
3.86164
3.81518
3.76932
3.72418
3.67985
3.63645
3.59407
3.5528
3.51274
3.47399
3.43664
3.4008
3.36657
3.33409
3.30352
3.27501
3.24871
3.22383
3.19969
0.0513204
0.0887014
0.111537
0.127839
0.141169
0.152887
0.163649
0.17384
0.183713
0.193448
0.20318
0.213015
0.223036
0.233309
0.243889
0.254818
0.26613
0.277854
0.290013
0.302628
0.315716
0.329292
0.343371
0.357967
0.373093
0.388762
0.404989
0.421786
0.439166
0.457145
0.475737
0.494956
0.514819
0.53534
0.556537
0.578427
0.601027
0.624356
0.648432
0.673277
0.698912
0.72536
0.752643
0.780785
0.80981
0.839743
0.870608
0.902429
0.935232
0.96904
1.00388
1.03977
1.07673
1.11479
1.15397
1.19429
1.23577
1.27842
1.32226
1.36731
1.41357
1.46106
1.50977
1.55973
1.61091
1.66333
1.71697
1.77182
1.82788
1.88511
1.94351
2.00303
2.06366
2.12536
2.18809
2.25181
2.31646
2.38201
2.44839
2.51555
2.58343
2.65196
2.72106
2.79068
2.86073
2.93115
3.00183
3.07272
3.14372
3.21474
3.28571
3.35653
3.42711
3.49737
3.5672
3.63653
3.70526
3.7733
3.84057
3.90697
3.97243
4.03684
4.10015
4.16224
4.22306
4.28251
4.34051
4.39699
4.45187
4.50507
4.55652
4.60614
4.65385
4.69959
4.74328
4.78484
4.82422
4.86133
4.8961
4.92847
4.95836
4.98571
5.01045
5.03252
5.05187
5.06843
5.08217
5.09305
5.10103
5.10608
5.1082
5.10734
5.1034
5.09625
5.08611
5.07302
5.05701
5.03813
5.01645
4.99204
4.96499
4.93538
4.90332
4.86891
4.83228
4.79356
4.75288
4.71038
4.66621
4.62051
4.57344
4.52514
4.47576
4.42546
4.37439
4.32268
4.2705
4.21798
4.16528
4.11254
4.05991
4.00752
3.95553
3.90407
3.85329
3.80332
3.75431
3.70638
3.65968
3.61434
3.57049
3.52828
3.48786
3.44936
3.41296
3.37883
3.3471
3.31793
3.29055
3.26457
0.0535281
0.0902216
0.113357
0.129958
0.143557
0.155527
0.166532
0.176953
0.187041
0.196974
0.206883
0.216872
0.227021
0.237396
0.248052
0.259032
0.270372
0.282102
0.294248
0.30683
0.319867
0.333377
0.347379
0.361889
0.376925
0.392505
0.408643
0.425358
0.442668
0.460588
0.479139
0.498338
0.518206
0.538761
0.560024
0.582014
0.604754
0.628264
0.652566
0.677688
0.703657
0.730502
0.75825
0.78693
0.816569
0.847198
0.878843
0.911534
0.9453
0.980168
1.01617
1.05332
1.09166
1.1312
1.17197
1.214
1.2573
1.3019
1.3478
1.39503
1.44359
1.4935
1.54475
1.59736
1.65131
1.7066
1.76323
1.82117
1.88041
1.94092
2.00269
2.06566
2.12982
2.19512
2.2615
2.32893
2.39735
2.4667
2.53692
2.60794
2.67969
2.7521
2.82509
2.89859
2.9725
3.04675
3.12124
3.19588
3.2706
3.34528
3.41984
3.49419
3.56823
3.64186
3.71498
3.78751
3.85934
3.93039
4.00056
4.06976
4.1379
4.2049
4.27067
4.33513
4.3982
4.45979
4.51983
4.57824
4.63494
4.68987
4.74294
4.7941
4.84327
4.89039
4.93537
4.97817
5.01871
5.05692
5.09274
5.1261
5.15693
5.18517
5.21075
5.23362
5.25371
5.27096
5.28534
5.29679
5.30528
5.31077
5.31327
5.3127
5.30893
5.30172
5.2914
5.27798
5.26149
5.24198
5.21949
5.1941
5.16587
5.13489
5.10125
5.06505
5.02642
4.98547
4.94233
4.89716
4.85008
4.80125
4.75082
4.69894
4.64577
4.59145
4.53616
4.48003
4.42324
4.36593
4.30827
4.25042
4.19253
4.13477
4.07731
4.02031
3.96395
3.90839
3.8538
3.80037
3.74826
3.69766
3.64875
3.60171
3.55673
3.514
3.47372
3.43607
3.40118
3.36922
3.33945
3.31179
0.0552108
0.090909
0.114167
0.13094
0.1447
0.15682
0.167974
0.178541
0.188769
0.198829
0.20885
0.218933
0.229154
0.239579
0.250258
0.261237
0.272551
0.284233
0.296312
0.308813
0.321745
0.335132
0.348998
0.363365
0.378256
0.393692
0.409693
0.42628
0.443476
0.461303
0.479783
0.49894
0.518796
0.539376
0.560703
0.5828
0.605693
0.629403
0.653949
0.679376
0.705723
0.733022
0.761306
0.790608
0.820963
0.852402
0.884957
0.918661
0.953546
0.989644
1.02699
1.0656
1.10552
1.14676
1.18936
1.23333
1.2787
1.32548
1.3737
1.42335
1.47446
1.52703
1.58106
1.63655
1.69348
1.75185
1.81165
1.87284
1.93541
1.99933
2.06455
2.13105
2.19877
2.26767
2.33769
2.40877
2.48086
2.55388
2.62777
2.70244
2.77783
2.85385
2.93042
3.00745
3.08484
3.16251
3.24036
3.3183
3.39623
3.47404
3.55165
3.62895
3.70583
3.78221
3.85799
3.93305
4.00732
4.08068
4.15305
4.22434
4.29446
4.36331
4.43083
4.49691
4.5615
4.6245
4.68584
4.74544
4.80325
4.85919
4.91319
4.9652
5.01514
5.06296
5.1086
5.152
5.1931
5.23183
5.26814
5.30197
5.33325
5.36192
5.38791
5.41118
5.43165
5.44928
5.46402
5.47581
5.48461
5.49039
5.49317
5.4928
5.48918
5.4819
5.47141
5.4577
5.44081
5.42076
5.39759
5.37135
5.34211
5.30993
5.27491
5.23713
5.1967
5.15375
5.10839
5.06077
5.01103
4.95931
4.90576
4.85054
4.7938
4.73571
4.67642
4.6161
4.55491
4.49303
4.43061
4.36784
4.30489
4.24195
4.17919
4.11682
4.05503
3.99402
3.934
3.87519
3.8178
3.76207
3.70819
3.65643
3.60699
3.56012
3.51601
3.47485
3.43683
3.40213
3.3701
3.34096
0.0563768
0.0908282
0.114045
0.130864
0.14468
0.156861
0.168088
0.178728
0.189023
0.199144
0.209213
0.219326
0.22956
0.239976
0.250626
0.261552
0.272793
0.284384
0.296358
0.308748
0.321556
0.334811
0.348541
0.362771
0.377528
0.392836
0.408719
0.425205
0.442317
0.460084
0.478532
0.497688
0.517582
0.538243
0.559698
0.581978
0.605113
0.62914
0.654063
0.679955
0.706854
0.734802
0.763837
0.794001
0.825333
0.857866
0.891635
0.926674
0.963018
1.0007
1.03977
1.08023
1.12213
1.16549
1.21032
1.25666
1.30452
1.35391
1.40484
1.45733
1.51138
1.56698
1.62413
1.68282
1.74303
1.80474
1.86792
1.93256
1.9986
2.06601
2.13475
2.20477
2.27601
2.34841
2.42192
2.49646
2.57196
2.64836
2.72556
2.8035
2.88207
2.96121
3.04081
3.12079
3.20104
3.28147
3.36199
3.44248
3.52286
3.60301
3.68284
3.76224
3.84112
3.91937
3.99689
4.07359
4.14936
4.22412
4.29776
4.3702
4.44135
4.51113
4.57945
4.64623
4.71141
4.77491
4.83665
4.89657
4.95461
5.0107
5.06479
5.11682
5.16675
5.21451
5.26006
5.30334
5.3443
5.3829
5.41908
5.45278
5.48395
5.51252
5.53846
5.56169
5.58216
5.59982
5.61461
5.62648
5.63537
5.64129
5.64424
5.644
5.6405
5.63315
5.62253
5.60861
5.59141
5.57095
5.54725
5.52035
5.4903
5.45716
5.42099
5.3819
5.33996
5.29529
5.24801
5.19825
5.14615
5.09186
5.03551
4.97728
4.9173
4.85575
4.79279
4.72859
4.66331
4.59715
4.53028
4.46289
4.39517
4.32732
4.25955
4.19208
4.12512
4.05891
3.9937
3.92974
3.86728
3.80648
3.7477
3.69124
3.63737
3.5864
3.53854
3.49418
3.45337
3.41626
3.38225
3.35195
0.057213
0.0903253
0.113341
0.130106
0.143893
0.156057
0.167259
0.177877
0.188151
0.198249
0.208292
0.218374
0.228567
0.23893
0.249514
0.260361
0.27151
0.282992
0.294838
0.307071
0.319714
0.332803
0.34637
0.360448
0.375067
0.39026
0.406058
0.422494
0.4396
0.457411
0.475962
0.495294
0.515449
0.536449
0.558321
0.581104
0.604833
0.629534
0.655226
0.682002
0.709919
0.739021
0.769351
0.800949
0.833849
0.868094
0.903719
0.940763
0.979259
1.01925
1.06077
1.10385
1.14851
1.19475
1.24259
1.29205
1.34314
1.39586
1.45021
1.50619
1.56379
1.623
1.68379
1.74614
1.81003
1.87541
1.94226
2.01052
2.08015
2.1511
2.22332
2.29674
2.3713
2.44694
2.52358
2.60115
2.67958
2.75878
2.83867
2.91916
3.00017
3.0816
3.16336
3.24536
3.3275
3.40969
3.49181
3.57378
3.65548
3.73683
3.81771
3.89804
3.9777
4.05661
4.13465
4.21175
4.2878
4.36271
4.4364
4.50877
4.57975
4.64924
4.71719
4.78351
4.84814
4.911
4.97204
5.03119
5.08839
5.14361
5.19679
5.24789
5.29686
5.34366
5.38825
5.43058
5.47063
5.50834
5.54367
5.57658
5.60702
5.63492
5.66026
5.68298
5.70302
5.72033
5.73484
5.74649
5.75526
5.76111
5.76411
5.76395
5.76055
5.75314
5.74243
5.72838
5.71098
5.69025
5.6662
5.63884
5.60821
5.57435
5.53732
5.49718
5.45403
5.40795
5.35907
5.30751
5.2534
5.19687
5.13808
5.07718
5.01432
4.94966
4.88338
4.81564
4.74664
4.67654
4.60556
4.53389
4.46173
4.3893
4.31679
4.24442
4.17248
4.10124
4.031
3.96204
3.89469
3.82935
3.76621
3.7056
3.64784
3.59326
3.54222
3.49483
3.45134
3.41197
3.37614
3.34493
0.0576529
0.0892252
0.111846
0.12843
0.142087
0.15414
0.165242
0.175768
0.185958
0.195976
0.20594
0.21594
0.226046
0.236315
0.246797
0.257534
0.268567
0.279932
0.291663
0.303797
0.316374
0.329429
0.342996
0.357113
0.371817
0.387147
0.403147
0.419867
0.437337
0.455592
0.474679
0.494642
0.515518
0.537278
0.560017
0.583801
0.608688
0.634745
0.662027
0.690585
0.72047
0.751731
0.784412
0.818553
0.854189
0.891355
0.930084
0.970402
1.01234
1.05591