/*--------------------------------*- C++ -*----------------------------------*\
| =========                 |                                                 |
| \\      /  F ield         | OpenFOAM: The Open Source CFD Toolbox           |
|  \\    /   O peration     | Version:  2212                                  |
|   \\  /    A nd           | Website:  www.openfoam.com                      |
|    \\/     M anipulation  |                                                 |
\*---------------------------------------------------------------------------*/
FoamFile
{
    version     2.0;
    format      ascii;
    arch        "LSB;label=32;scalar=64";
    class       volScalarField;
    location    "200";
    object      nut;
}
// * * * * * * * * * * * * * * * * * * * * * * * * * * * * * * * * * * * * * //

dimensions      [0 2 -1 0 0 0 0];

internalField   nonuniform List<scalar> 
12225
(
2.70744e-05
3.55746e-05
4.0523e-05
4.31923e-05
4.44515e-05
4.49642e-05
4.49108e-05
4.48716e-05
4.45032e-05
4.41848e-05
4.38515e-05
4.35233e-05
4.32275e-05
4.29455e-05
4.27123e-05
4.24747e-05
4.23161e-05
4.20883e-05
0.000212993
8.46414e-05
5.59083e-05
4.40572e-05
3.83762e-05
3.53556e-05
3.38465e-05
3.30821e-05
3.28585e-05
3.28687e-05
3.32209e-05
3.3596e-05
3.42371e-05
3.47888e-05
3.55951e-05
3.62152e-05
3.7141e-05
3.76472e-05
0.000656975
0.000306545
0.000194002
0.000142115
0.00011322
9.45008e-05
8.20231e-05
7.33167e-05
6.68022e-05
6.19624e-05
5.80437e-05
5.51127e-05
5.2535e-05
5.07148e-05
4.88942e-05
4.78607e-05
4.63306e-05
4.53877e-05
0.000862999
0.000609448
0.000451593
0.000350882
0.000289279
0.000246516
0.000216672
0.000194307
0.000177759
0.000164299
0.000154045
0.000145073
0.0001382
0.000131732
0.000126896
0.000121888
0.000118151
0.000113804
0.000877433
0.000776402
0.000690826
0.000591974
0.000517296
0.000458117
0.000413465
0.000377246
0.000349664
0.000325981
0.000307893
0.000291322
0.000278911
0.000266622
0.000257857
0.000248361
0.000241576
0.000234142
0.000858412
0.00083529
0.000807269
0.000753121
0.000699367
0.000648264
0.000604822
0.000565879
0.000534198
0.000505376
0.000482487
0.000460742
0.000444079
0.000427103
0.000414953
0.000401234
0.000392193
0.000380525
0.000854258
0.000849542
0.000840709
0.000823039
0.000798592
0.000768475
0.000739173
0.00070956
0.000683353
0.000657733
0.000636204
0.00061481
0.000597705
0.000579803
0.000566531
0.000551262
0.00054122
0.000527125
0.000852389
0.000851592
0.000849791
0.000844527
0.000835945
0.000824522
0.000810174
0.000793467
0.000777241
0.000760018
0.00074456
0.000728295
0.000714569
0.000699776
0.000688171
0.000674791
0.000665403
0.000652367
0.000851902
0.00085148
0.000851079
0.000849882
0.000847544
0.000843618
0.000838592
0.000831272
0.000823647
0.000814992
0.000806298
0.000796553
0.000787797
0.000778075
0.000769842
0.000760526
0.000753041
0.000743791
0.000851815
0.000851374
0.000851073
0.00085061
0.000850034
0.000848809
0.000847331
0.000844858
0.000841997
0.000838305
0.000834502
0.000829864
0.000825423
0.000820275
0.000815569
0.000810283
0.000805557
0.000799756
0.000851799
0.000851357
0.000851021
0.000850624
0.000850325
0.000849824
0.000849338
0.000848518
0.000847605
0.000846261
0.000844873
0.000843009
0.000841201
0.000838883
0.000836819
0.000834105
0.000832043
0.000828846
0.000851792
0.000851359
0.000851001
0.000850611
0.000850306
0.000849938
0.000849631
0.00084921
0.000848815
0.000848234
0.000847676
0.000846876
0.000846139
0.000845093
0.000844214
0.000842916
0.000841976
0.000840426
0.000851787
0.000851362
0.000850989
0.000850608
0.00085028
0.000849936
0.000849645
0.000849319
0.000849041
0.000848698
0.000848399
0.000848002
0.000847659
0.00084718
0.000846787
0.000846212
0.000845772
0.000845101
0.000851783
0.000851364
0.00085098
0.000850605
0.000850263
0.000849926
0.000849622
0.000849316
0.000849043
0.000848759
0.000848507
0.000848233
0.000847991
0.000847715
0.000847473
0.000847186
0.000846937
0.000846636
0.000851781
0.000851364
0.000850974
0.0008506
0.000850251
0.000849916
0.000849603
0.0008493
0.000849018
0.000848744
0.000848489
0.000848238
0.000848005
0.000847773
0.000847557
0.000847341
0.000847137
0.000846933
0.00085178
0.000851363
0.00085097
0.000850596
0.000850243
0.000849907
0.000849589
0.000849286
0.000848999
0.000848724
0.000848464
0.000848214
0.000847977
0.000847749
0.000847532
0.000847323
0.000847124
0.000846932
0.000851779
0.000851362
0.000850967
0.000850592
0.000850236
0.000849899
0.000849579
0.000849274
0.000848984
0.000848707
0.000848444
0.000848192
0.000847952
0.000847722
0.000847503
0.000847292
0.000847091
0.000846898
0.000851779
0.000851362
0.000850966
0.00085059
0.000850233
0.000849894
0.000849572
0.000849266
0.000848974
0.000848696
0.00084843
0.000848177
0.000847935
0.000847703
0.000847482
0.00084727
0.000847066
0.000846872
0.000851779
0.000851362
0.000850965
0.000850589
0.000850232
0.000849892
0.00084957
0.000849263
0.00084897
0.000848691
0.000848425
0.00084817
0.000847927
0.000847694
0.000847472
0.000847258
0.000847054
0.000846859
0.000851779
0.000851363
0.000850966
0.000850591
0.000850234
0.000849895
0.000849573
0.000849266
0.000848974
0.000848695
0.000848428
0.000848174
0.00084793
0.000847697
0.000847473
0.000847259
0.000847052
0.000846855
0.000851779
0.000851364
0.000850968
0.000850595
0.000850238
0.000849902
0.000849579
0.000849274
0.000848979
0.0008487
0.000848427
0.000848168
0.000847911
0.000847667
0.00084742
0.000847188
0.000846947
0.000846723
0.000851778
0.000851368
0.000850969
0.000850603
0.000850243
0.000849911
0.000849573
0.000849254
0.000848916
0.000848587
0.000848223
0.000847865
0.000847456
0.00084706
0.000846596
0.00084616
0.000845637
0.00084517
0.000851779
0.000851382
0.000850972
0.000850624
0.000850209
0.000849789
0.000849234
0.000848616
0.000847803
0.000846896
0.000845768
0.00084456
0.000843125
0.000841663
0.000839958
0.000838331
0.000836384
0.000834696
0.000851855
0.000851468
0.000850931
0.000850395
0.000849127
0.000847458
0.000844947
0.00084194
0.000838072
0.000833847
0.000828959
0.000823928
0.000818451
0.000812995
0.000807274
0.000801722
0.000795836
0.000790767
0.000852785
0.000851382
0.000849188
0.000845095
0.000836885
0.000827817
0.000815749
0.000802822
0.000788373
0.000774367
0.00075966
0.000746074
0.000732114
0.000719677
0.000706812
0.000695833
0.000684077
0.000674682
0.000858211
0.000842301
0.000828961
0.000803013
0.000769258
0.000735474
0.000700802
0.000669703
0.000639496
0.00061359
0.000588609
0.000567739
0.000547309
0.00053065
0.000513856
0.000500598
0.000486553
0.000476051
0.000864338
0.000785615
0.000712709
0.000628299
0.000558283
0.000503081
0.000455745
0.000418865
0.000386621
0.000361589
0.000338759
0.000321222
0.000304409
0.000291764
0.000278903
0.000269538
0.000259358
0.000252291
0.000775956
0.000540064
0.00039794
0.000312963
0.000258156
0.000219633
0.000190504
0.000169563
0.00015255
0.00013999
0.000129093
0.000121014
0.000113524
0.000108072
0.00010263
9.8807e-05
9.46827e-05
9.19095e-05
0.000323582
0.000164841
0.000111417
8.60759e-05
7.08264e-05
6.13545e-05
5.50183e-05
5.08855e-05
4.79531e-05
4.60097e-05
4.45905e-05
4.36882e-05
4.30395e-05
4.26951e-05
4.24556e-05
4.24397e-05
4.24365e-05
4.26233e-05
3.26574e-05
3.90519e-05
4.3892e-05
4.69716e-05
4.93654e-05
5.11698e-05
5.25343e-05
5.34594e-05
5.4114e-05
5.44633e-05
5.46905e-05
5.46972e-05
5.4654e-05
5.45497e-05
5.43768e-05
5.41694e-05
5.39443e-05
5.37076e-05
3.85486e-06
1.0537e-05
1.25132e-05
1.40074e-05
1.51116e-05
1.59275e-05
1.65637e-05
1.71257e-05
1.76192e-05
1.80727e-05
1.85125e-05
1.89606e-05
1.94402e-05
1.99933e-05
2.06516e-05
2.138e-05
2.21441e-05
2.29331e-05
2.37458e-05
2.45855e-05
2.54541e-05
2.63534e-05
2.72827e-05
2.82413e-05
2.92266e-05
3.02376e-05
3.12724e-05
3.23262e-05
3.33889e-05
3.44585e-05
3.5531e-05
3.66059e-05
3.76807e-05
3.87549e-05
3.98267e-05
4.08963e-05
4.19624e-05
4.3027e-05
4.40921e-05
4.51623e-05
4.62422e-05
4.73404e-05
4.84555e-05
4.95619e-05
5.06679e-05
5.17724e-05
5.28751e-05
5.39773e-05
5.50783e-05
5.6179e-05
5.72788e-05
5.83786e-05
5.94776e-05
6.05768e-05
6.16752e-05
6.27737e-05
6.38712e-05
6.49687e-05
6.6065e-05
6.71608e-05
6.8255e-05
6.93483e-05
7.04393e-05
7.1529e-05
7.26156e-05
7.37002e-05
7.4781e-05
7.58587e-05
7.69319e-05
7.80012e-05
7.90649e-05
8.01237e-05
8.1176e-05
8.22222e-05
8.32607e-05
8.42921e-05
8.53147e-05
8.63289e-05
8.73331e-05
8.83279e-05
8.93114e-05
9.02842e-05
9.12445e-05
9.21927e-05
9.31271e-05
9.4048e-05
9.49537e-05
9.58444e-05
9.67185e-05
9.75757e-05
9.84145e-05
9.92339e-05
0.000100033
0.000100809
0.000101562
0.000102289
0.000102991
0.000103667
0.000104321
0.000104959
0.000105571
0.00010616
0.000106724
0.000107264
0.000107778
0.000108266
0.000108726
0.00010916
0.000109565
0.000109942
0.000110289
0.000110606
0.000110893
0.000111148
0.000111371
0.000111563
0.000111721
0.000111846
0.000111938
0.000111995
0.000112018
0.000112007
0.000111961
0.000111881
0.000111767
0.000111618
0.000111428
0.000111197
0.000110941
0.000110662
0.000110336
0.00010998
0.00010959
0.000109167
0.000108713
0.000108228
0.000107714
0.00010717
0.000106599
0.000106
0.000105378
0.000104734
0.00010407
0.000103387
0.000102689
0.000101977
0.000101253
0.00010052
9.97786e-05
9.90317e-05
9.82808e-05
9.75287e-05
9.67779e-05
9.60307e-05
9.52888e-05
9.4555e-05
9.38316e-05
9.31206e-05
9.24243e-05
9.17448e-05
9.1084e-05
9.04433e-05
8.98255e-05
8.92326e-05
8.86651e-05
8.8128e-05
8.76574e-05
8.76454e-05
8.75341e-05
8.72881e-05
8.70865e-05
8.69166e-05
8.67697e-05
8.66475e-05
8.6549e-05
8.65014e-05
8.64267e-05
8.62777e-05
8.60396e-05
8.47348e-05
6.07456e-06
2.92543e-05
6.24924e-05
8.82758e-05
0.000105576
0.000116565
0.000123093
0.000126812
0.000129445
0.000131831
0.000134273
0.000136788
0.00013926
0.000141544
0.000143622
0.000145603
0.00014758
0.000149618
0.000151774
0.000154104
0.00015666
0.000159485
0.000162612
0.000166059
0.000169835
0.000173943
0.000178384
0.000183166
0.000188272
0.000193651
0.000199277
0.000205141
0.000211257
0.000217624
0.000224221
0.000231033
0.000238008
0.000245082
0.000252229
0.000259427
0.000266663
0.000273939
0.000281292
0.000288702
0.000296183
0.000303732
0.000311355
0.000319052
0.000326827
0.00033468
0.000342614
0.000350631
0.000358735
0.000366926
0.000375208
0.000383583
0.000392054
0.000400622
0.000409289
0.000418056
0.000426925
0.000435896
0.000444971
0.000454149
0.000463432
0.000472818
0.000482308
0.000491899
0.000501592
0.000511383
0.000521272
0.000531256
0.000541334
0.000551501
0.000561756
0.000572093
0.00058251
0.000593002
0.000603566
0.000614198
0.000624893
0.000635646
0.000646455
0.000657313
0.000668217
0.00067916
0.000690141
0.000701154
0.000712197
0.000723265
0.000734354
0.000745456
0.000756558
0.000767637
0.000778659
0.000789559
0.000800225
0.000810469
0.000819982
0.000829271
0.000838454
0.000847521
0.000856463
0.000865271
0.000873935
0.000882444
0.000890787
0.000898954
0.000906931
0.000914708
0.000922272
0.000929611
0.000936712
0.000943562
0.000950149
0.000956461
0.000962486
0.000968211
0.000973624
0.000978715
0.000983473
0.00098789
0.000991958
0.000995681
0.000999076
0.00100221
0.00100484
0.0010068
0.00100854
0.0010102
0.00101131
0.00101203
0.00101238
0.00101234
0.00101193
0.00101116
0.00101004
0.00100858
0.0010068
0.0010047
0.0010023
0.00099962
0.000996676
0.00099349
0.000990081
0.000986472
0.000982686
0.000978743
0.000974667
0.000970484
0.000966218
0.000961896
0.000957545
0.000953189
0.000948853
0.000944565
0.000940348
0.000936228
0.000932227
0.00092837
0.000924676
0.000921162
0.000917844
0.000914734
0.000911832
0.000909138
0.00090662
0.000904125
0.000899566
0.000894955
0.000890533
0.000886137
0.000881759
0.000877355
0.000872819
0.000868223
0.000863156
0.00085706
0.000848572
0.000825455
7.5821e-06
4.63623e-05
9.95196e-05
0.000143959
0.000177364
0.000201481
0.000218537
0.000230542
0.000239261
0.000246011
0.000251665
0.000256741
0.00026152
0.000266163
0.000270793
0.000275526
0.000280461
0.000285678
0.000291249
0.000297235
0.000303694
0.00031067
0.000318194
0.000326282
0.000334932
0.000344121
0.000353805
0.000364069
0.000375007
0.000386715
0.000398952
0.000411587
0.00042458
0.000437893
0.00045149
0.00046533
0.000479376
0.000493598
0.000507981
0.000522513
0.000537189
0.00055201
0.00056698
0.000582083
0.000597311
0.000612686
0.00062821
0.000643888
0.000659722
0.000675715
0.000691872
0.000708196
0.000724689
0.000741356
0.000758201
0.000775226
0.000792434
0.000809828
0.000827409
0.000845177
0.000863135
0.00088128
0.000899613
0.000918132
0.000936836
0.000955723
0.000974789
0.00099403
0.00101344
0.00103302
0.00105276
0.00107266
0.00109271
0.0011129
0.00113322
0.00115367
0.00117424
0.00119491
0.00121569
0.00123656
0.00125751
0.00127854
0.00129962
0.00132076
0.00134193
0.00136313
0.00138435
0.00140558
0.0014268
0.00144799
0.00146914
0.00149023
0.00151121
0.00153206
0.00155271
0.00157308
0.00159309
0.00161264
0.00163172
0.00165054
0.00166914
0.00168749
0.00170557
0.00172337
0.00174086
0.00175802
0.00177484
0.00179128
0.00180733
0.00182296
0.00183814
0.00185286
0.00186708
0.00188079
0.00189396
0.00190655
0.00191856
0.00192996
0.00194072
0.00195082
0.00196024
0.00196897
0.00197698
0.00198428
0.00199086
0.00199686
0.00200233
0.00200623
0.00200942
0.00201242
0.00201446
0.00201569
0.00201614
0.00201582
0.00201475
0.00201294
0.00201042
0.00200719
0.0020033
0.00199877
0.00199363
0.00198791
0.00198166
0.00197491
0.0019677
0.00196009
0.0019521
0.0019438
0.00193522
0.00192642
0.00191745
0.00190835
0.00189919
0.00189001
0.00188085
0.00187178
0.00186284
0.00185408
0.00184554
0.00183726
0.00182928
0.00182163
0.00181434
0.00180741
0.00180085
0.00179464
0.00178869
0.00178262
0.00177504
0.00176732
0.00175963
0.00175195
0.00174427
0.0017365
0.0017285
0.00172026
0.00171119
0.00169991
0.00168374
0.0016457
8.6e-06
6.26546e-05
0.000131518
0.000189016
0.000233612
0.000266926
0.000291488
0.00030961
0.00032325
0.000333962
0.000342907
0.000350899
0.000358482
0.00036601
0.000373716
0.000381757
0.000390247
0.000399269
0.000408889
0.000419163
0.000430133
0.000441833
0.000454284
0.000467498
0.000481482
0.000496245
0.000511808
0.000528058
0.000544847
0.000562007
0.000579584
0.000597598
0.000616019
0.000634808
0.000653922
0.000673322
0.000692963
0.00071282
0.000732914
0.000753242
0.000773806
0.000794616
0.000815696
0.000837093
0.000858696
0.000880507
0.000902529
0.000924767
0.000947225
0.000969906
0.000992814
0.00101595
0.00103933
0.00106294
0.00108679
0.00111089
0.00113524
0.00115984
0.00118469
0.0012098
0.00123515
0.00126076
0.00128662
0.00131272
0.00133906
0.00136563
0.00139244
0.00141947
0.00144672
0.00147417
0.00150183
0.00152968
0.00155771
0.00158591
0.00161426
0.00164277
0.0016714
0.00170016
0.00172903
0.00175798
0.00178702
0.00181612
0.00184526
0.00187444
0.00190363
0.00193282
0.00196198
0.00199111
0.00202016
0.00204914
0.00207799
0.0021067
0.00213522
0.00216352
0.00219152
0.00221919
0.00224645
0.00227327
0.00229969
0.00232579
0.00235156
0.00237698
0.00240203
0.00242668
0.0024509
0.00247467
0.00249795
0.00252071
0.00254293
0.00256457
0.00258561
0.002606
0.00262573
0.00264474
0.00266302
0.00268053
0.00269724
0.00271312
0.00272812
0.00274224
0.00275543
0.00276768
0.00277896
0.00278926
0.00279856
0.00280701
0.00281475
0.00282076
0.00282544
0.00282969
0.00283275
0.0028347
0.00283556
0.00283534
0.00283406
0.00283175
0.00282843
0.00282413
0.00281888
0.00281272
0.00280569
0.00279785
0.00278923
0.0027799
0.00276991
0.00275933
0.0027482
0.0027366
0.0027246
0.00271225
0.00269964
0.00268683
0.0026739
0.0026609
0.00264793
0.00263503
0.00262229
0.00260977
0.00259753
0.00258563
0.00257412
0.00256304
0.00255242
0.00254229
0.00253265
0.00252348
0.00251468
0.00250592
0.00249646
0.00248688
0.0024773
0.00246769
0.00245833
0.00244893
0.00243936
0.00242943
0.00241862
0.00240543
0.00238595
0.00234534
9.32336e-06
7.66413e-05
0.000159215
0.000227799
0.000281834
0.000323098
0.00035433
0.000378071
0.000396458
0.000411223
0.000423711
0.000434926
0.00044558
0.000456161
0.000466995
0.000478294
0.000490197
0.000502796
0.000516152
0.000530308
0.00054529
0.00056111
0.00057777
0.000595259
0.000613557
0.000632631
0.000652434
0.000672889
0.000693917
0.000715457
0.000737484
0.000759979
0.000782909
0.000806244
0.000829955
0.00085402
0.000878431
0.000903175
0.000928212
0.000953525
0.000979104
0.00100494
0.00103102
0.0010573
0.00108382
0.00111059
0.00113763
0.00116494
0.00119253
0.00122039
0.00124853
0.00127695
0.00130566
0.00133465
0.00136392
0.00139348
0.00142334
0.00145349
0.00148394
0.00151469
0.00154573
0.00157706
0.00160868
0.00164058
0.00167274
0.00170517
0.00173786
0.0017708
0.00180397
0.00183737
0.00187098
0.0019048
0.0019388
0.00197297
0.00200731
0.00204178
0.00207638
0.00211109
0.0021459
0.00218077
0.00221571
0.00225068
0.00228566
0.00232064
0.0023556
0.00239051
0.00242535
0.0024601
0.00249473
0.00252921
0.00256351
0.0025976
0.00263145
0.00266501
0.00269826
0.00273115
0.00276366
0.00279578
0.00282751
0.00285886
0.00288983
0.00292037
0.00295047
0.00298009
0.00300921
0.00303779
0.0030658
0.0030932
0.00311997
0.00314607
0.00317146
0.00319611
0.00321998
0.00324303
0.00326523
0.00328653
0.0033069
0.00332631
0.00334471
0.00336208
0.00337837
0.00339356
0.00340762
0.00342053
0.00343227
0.00344288
0.00345268
0.00346084
0.00346727
0.00347285
0.00347717
0.00348017
0.00348185
0.00348222
0.00348132
0.00347915
0.00347576
0.00347116
0.0034654
0.00345852
0.00345057
0.0034416
0.00343167
0.00342084
0.00340918
0.00339676
0.00338364
0.00336992
0.00335566
0.00334094
0.00332586
0.00331049
0.00329492
0.00327924
0.00326354
0.0032479
0.0032324
0.00321714
0.00320217
0.00318758
0.00317343
0.00315977
0.00314666
0.00313412
0.00312217
0.0031108
0.00309993
0.00308934
0.00307864
0.003068
0.00305745
0.00304695
0.00303666
0.00302642
0.00301611
0.00300552
0.00299418
0.00298074
0.00296148
0.00292393
9.8647e-06
8.86388e-05
0.000182807
0.00026128
0.000323741
0.000372435
0.000410081
0.000439365
0.000462553
0.000481507
0.000497707
0.000512289
0.00052609
0.000539705
0.000553541
0.000567869
0.00058286
0.000598621
0.000615216
0.000632679
0.000651023
0.000670247
0.000690335
0.000711262
0.000732992
0.000755482
0.000778679
0.000802527
0.000826972
0.000851968
0.000877481
0.000903481
0.000929935
0.000956816
0.000984098
0.00101176
0.00103978
0.00106814
0.00109682
0.0011258
0.00115508
0.00118464
0.00121448
0.00124459
0.00127499
0.00130567
0.00133666
0.00136794
0.00139953
0.00143142
0.00146363
0.00149615
0.00152898
0.00156214
0.00159564
0.00162945
0.00166358
0.00169802
0.00173277
0.00176783
0.00180318
0.00183883
0.00187477
0.00191099
0.00194748
0.00198424
0.00202124
0.00205849
0.00209596
0.00213365
0.00217154
0.00220962
0.00224787
0.00228628
0.00232483
0.0023635
0.00240227
0.00244113
0.00248006
0.00251903
0.00255804
0.00259705
0.00263604
0.002675
0.00271391
0.00275273
0.00279145
0.00283004
0.00286848
0.00290673
0.00294478
0.00298259
0.00302013
0.00305738
0.0030943
0.00313087
0.00316708
0.00320291
0.00323835
0.00327337
0.00330797
0.00334212
0.00337578
0.00340893
0.00344154
0.00347358
0.00350501
0.00353579
0.0035659
0.0035953
0.00362395
0.00365181
0.00367884
0.003705
0.00373026
0.00375457
0.0037779
0.00380019
0.00382141
0.00384152
0.00386048
0.00387826
0.00389482
0.00391013
0.00392416
0.00393689
0.00394871
0.00395899
0.00396742
0.00397457
0.00398044
0.00398483
0.00398775
0.00398919
0.00398918
0.00398773
0.00398489
0.00398067
0.00397511
0.00396827
0.00396018
0.0039509
0.0039405
0.00392904
0.00391658
0.00390321
0.003889
0.00387404
0.00385842
0.00384222
0.00382554
0.00380847
0.00379111
0.00377357
0.00375593
0.0037383
0.00372078
0.00370345
0.00368642
0.00366976
0.00365356
0.00363788
0.00362278
0.00360832
0.00359452
0.00358138
0.00356886
0.00355684
0.0035451
0.00353363
0.00352246
0.00351155
0.00350093
0.00349053
0.00348024
0.00346988
0.00345903
0.00344655
0.00342927
0.00339781
1.04989e-05
9.65191e-05
0.000200742
0.000288686
0.000359318
0.000415359
0.000459424
0.000494323
0.000522433
0.000545717
0.000565756
0.000583789
0.00060075
0.000617323
0.000633989
0.000651075
0.000668794
0.000687277
0.000706597
0.000726793
0.000747874
0.000769832
0.000792646
0.000816284
0.000840707
0.000865871
0.000891728
0.000918232
0.000945337
0.000973002
0.00100119
0.00102988
0.00105903
0.00108861
0.00111861
0.00114899
0.00117975
0.00121085
0.0012423
0.00127406
0.00130614
0.00133853
0.00137122
0.00140421
0.0014375
0.00147111
0.00150502
0.00153926
0.00157381
0.00160868
0.00164387
0.00167939
0.00171523
0.0017514
0.0017879
0.00182472
0.00186186
0.0018993
0.00193706
0.00197512
0.00201347
0.00205212
0.00209104
0.00213024
0.0021697
0.00220942
0.00224937
0.00228956
0.00232996
0.00237056
0.00241135
0.00245231
0.00249343
0.00253468
0.00257606
0.00261755
0.00265912
0.00270076
0.00274245
0.00278416
0.00282589
0.0028676
0.00290928
0.00295091
0.00299246
0.00303391
0.00307524
0.00311642
0.00315744
0.00319826
0.00323886
0.00327921
0.0033193
0.00335909
0.00339856
0.0034377
0.00347648
0.00351488
0.00355289
0.00359049
0.00362765
0.00366435
0.00370057
0.00373627
0.00377143
0.00380601
0.00383998
0.0038733
0.00390596
0.0039379
0.00396909
0.00399949
0.00402907
0.00405778
0.00408557
0.00411242
0.00413826
0.00416307
0.00418678
0.00420937
0.00423079
0.00425099
0.00426993
0.00428758
0.0043039
0.00431885
0.00433277
0.00434519
0.00435583
0.00436484
0.00437255
0.00437868
0.0043832
0.00438611
0.00438744
0.00438719
0.0043854
0.00438209
0.00437729
0.00437106
0.00436343
0.00435445
0.00434419
0.00433272
0.0043201
0.00430641
0.00429173
0.00427616
0.00425978
0.00424269
0.00422499
0.00420678
0.00418817
0.00416926
0.00415018
0.00413101
0.00411189
0.0040929
0.00407416
0.00405576
0.00403779
0.00402035
0.00400351
0.00398734
0.00397187
0.00395714
0.00394314
0.0039298
0.00391702
0.00390475
0.00389298
0.00388171
0.00387091
0.00386056
0.00385057
0.00384081
0.00383095
0.00382005
0.00380553
0.003781
1.12518e-05
0.000100663
0.000213219
0.000310097
0.000388658
0.000451967
0.000502449
0.000543013
0.000576125
0.00060383
0.000627787
0.00064931
0.000669411
0.000688849
0.000708171
0.00072776
0.000747872
0.00076867
0.000790249
0.00081266
0.000835919
0.00086002
0.000884946
0.000910666
0.000937143
0.000964337
0.000992205
0.0010207
0.00104979
0.00107944
0.0011096
0.00114026
0.00117138
0.00120293
0.00123489
0.00126725
0.00129998
0.00133307
0.00136651
0.00140027
0.00143435
0.00146875
0.00150345
0.00153847
0.00157379
0.00160943
0.00164538
0.00168164
0.00171822
0.00175512
0.00179233
0.00182987
0.00186772
0.00190589
0.00194437
0.00198316
0.00202226
0.00206166
0.00210136
0.00214134
0.00218161
0.00222215
0.00226296
0.00230403
0.00234534
0.0023869
0.00242868
0.00247067
0.00251287
0.00255525
0.00259781
0.00264053
0.00268339
0.00272638
0.00276948
0.00281268
0.00285595
0.00289929
0.00294266
0.00298606
0.00302946
0.00307284
0.00311619
0.00315948
0.00320269
0.0032458
0.00328879
0.00333163
0.00337432
0.00341681
0.00345909
0.00350114
0.00354294
0.00358446
0.00362568
0.00366658
0.00370715
0.00374736
0.00378719
0.00382663
0.00386565
0.00390423
0.00394234
0.00397996
0.00401705
0.00405359
0.00408955
0.00412489
0.00415959
0.00419361
0.00422691
0.00425945
0.0042912
0.00432212
0.00435215
0.00438126
0.0044094
0.00443653
0.00446259
0.00448754
0.00451133
0.00453392
0.00455525
0.00457528
0.00459396
0.00461125
0.00462743
0.00464209
0.0046551
0.00466631
0.00467615
0.00468433
0.0046908
0.00469554
0.00469857
0.00469991
0.00469958
0.00469761
0.00469402
0.00468884
0.00468212
0.00467391
0.00466425
0.00465322
0.00464089
0.00462732
0.00461261
0.00459685
0.00458012
0.00456252
0.00454416
0.00452516
0.00450561
0.00448564
0.00446536
0.0044449
0.00442437
0.0044039
0.00438359
0.00436356
0.00434392
0.00432478
0.00430623
0.00428836
0.00427122
0.00425488
0.00423936
0.00422465
0.00421071
0.00419751
0.00418504
0.00417331
0.00416232
0.00415204
0.00414244
0.00413344
0.0041248
0.00411576
0.00410429
0.00408608
1.19071e-05
0.000102962
0.000221864
0.000326469
0.000412309
0.000482505
0.000539214
0.00058536
0.000623449
0.000655577
0.000683454
0.00070845
0.000731637
0.000753831
0.000775639
0.000797496
0.000819702
0.000842457
0.000865884
0.000890054
0.000914997
0.000940719
0.00096721
0.000994452
0.00102242
0.00105106
0.00108036
0.00111025
0.00114072
0.00117171
0.00120321
0.00123519
0.00126761
0.00130046
0.00133371
0.00136735
0.00140136
0.00143573
0.00147044
0.00150548
0.00154082
0.00157647
0.00161242
0.00164866
0.0016852
0.00172204
0.00175918
0.00179661
0.00183435
0.00187239
0.00191073
0.00194938
0.00198832
0.00202756
0.00206709
0.00210691
0.00214703
0.00218742
0.00222809
0.00226904
0.00231025
0.00235172
0.00239344
0.00243541
0.00247762
0.00252005
0.0025627
0.00260556
0.00264861
0.00269184
0.00273525
0.00277881
0.00282252
0.00286636
0.00291032
0.00295438
0.00299852
0.00304273
0.00308699
0.00313128
0.00317559
0.00321989
0.00326417
0.00330842
0.0033526
0.0033967
0.0034407
0.00348458
0.00352831
0.00357189
0.00361528
0.00365846
0.00370142
0.00374413
0.00378658
0.00382874
0.0038706
0.00391213
0.00395332
0.00399415
0.00403458
0.00407461
0.00411421
0.00415335
0.00419201
0.00423016
0.00426777
0.00430482
0.00434127
0.00437709
0.00441224
0.00444669
0.00448041
0.00451334
0.00454545
0.0045767
0.00460703
0.00463639
0.00466474
0.00469203
0.00471819
0.00474319
0.00476696
0.00478946
0.00481063
0.00483041
0.00484901
0.00486608
0.0048816
0.00489535
0.00490759
0.00491811
0.00492684
0.00493372
0.00493879
0.00494206
0.00494355
0.00494327
0.00494124
0.00493749
0.00493205
0.00492496
0.00491627
0.00490604
0.00489433
0.00488122
0.0048668
0.00485113
0.00483434
0.0048165
0.00479773
0.00477814
0.00475784
0.00473697
0.00471564
0.00469398
0.00467213
0.00465021
0.00462835
0.00460669
0.00458534
0.00456444
0.00454409
0.00452441
0.00450548
0.0044874
0.00447022
0.00445397
0.00443867
0.00442434
0.00441099
0.00439864
0.00438731
0.00437702
0.00436778
0.00435956
0.00435219
0.00434509
0.00433667
0.00432386
1.2458e-05
0.000103954
0.000227446
0.000338435
0.00043084
0.000507196
0.000569808
0.000621308
0.000664222
0.000700664
0.000732372
0.000760751
0.000786915
0.000811727
0.00083584
0.000859735
0.000883755
0.00090814
0.000933048
0.00095857
0.000984752
0.00101161
0.00103913
0.00106738
0.00109631
0.00112589
0.00115606
0.0011868
0.00121806
0.00124982
0.00128205
0.00131472
0.00134782
0.00138131
0.00141519
0.00144943
0.00148404
0.00151898
0.00155428
0.00158992
0.00162583
0.001662
0.00169844
0.00173514
0.0017721
0.00180934
0.00184684
0.00188462
0.00192267
0.001961
0.0019996
0.00203848
0.00207764
0.00211706
0.00215676
0.00219673
0.00223697
0.00227747
0.00231824
0.00235926
0.00240055
0.00244208
0.00248386
0.00252588
0.00256814
0.00261063
0.00265334
0.00269627
0.0027394
0.00278273
0.00282625
0.00286995
0.00291381
0.00295782
0.00300198
0.00304626
0.00309066
0.00313515
0.00317973
0.00322437
0.00326907
0.00331379
0.00335853
0.00340327
0.00344798
0.00349265
0.00353726
0.00358178
0.0036262
0.0036705
0.00371465
0.00375864
0.00380244
0.00384604
0.00388941
0.00393254
0.00397541
0.00401798
0.00406026
0.00410221
0.00414382
0.00418506
0.00422592
0.00426637
0.00430638
0.00434594
0.00438501
0.00442358
0.00446161
0.00449908
0.00453594
0.00457217
0.00460774
0.00464259
0.0046767
0.00471001
0.00474247
0.00477405
0.00480468
0.00483431
0.00486289
0.00489035
0.00491664
0.0049417
0.00496547
0.00498791
0.0050091
0.00502878
0.00504695
0.00506348
0.00507838
0.00509156
0.00510283
0.00511213
0.00511953
0.00512503
0.00512865
0.00513038
0.00513024
0.00512823
0.00512439
0.00511874
0.00511132
0.00510218
0.0050914
0.00507902
0.00506514
0.00504983
0.00503319
0.00501531
0.00499631
0.00497629
0.00495539
0.00493371
0.00491141
0.00488861
0.00486545
0.00484208
0.00481864
0.00479528
0.00477214
0.00474936
0.00472708
0.00470544
0.00468456
0.00466455
0.00464551
0.00462752
0.00461064
0.00459494
0.00458047
0.00456729
0.00455544
0.004545
0.004536
0.00452847
0.00452233
0.00451712
0.00451162
0.00450379
1.29125e-05
0.000103928
0.00023048
0.000346556
0.00044465
0.00052645
0.0005944
0.000650861
0.000698305
0.000738825
0.000774165
0.000805745
0.000834703
0.000861935
0.000888135
0.000913818
0.000939358
0.000965024
0.000991069
0.00101759
0.00104462
0.00107218
0.00110024
0.0011289
0.00115817
0.00118802
0.00121842
0.00124934
0.00128076
0.00131264
0.00134497
0.00137773
0.00141089
0.00144443
0.00147834
0.0015126
0.0015472
0.00158213
0.0016174
0.00165298
0.00168873
0.00172468
0.00176085
0.00179723
0.00183383
0.00187064
0.00190768
0.00194496
0.00198247
0.00202023
0.00205824
0.00209649
0.00213499
0.00217374
0.00221275
0.00225202
0.00229154
0.00233133
0.00237137
0.00241167
0.00245224
0.00249306
0.00253415
0.0025755
0.00261711
0.00265897
0.00270109
0.00274345
0.00278606
0.0028289
0.00287198
0.00291528
0.00295879
0.00300251
0.00304642
0.00309051
0.00313477
0.00317918
0.00322374
0.00326841
0.00331319
0.00335806
0.003403
0.00344799
0.00349301
0.00353804
0.00358306
0.00362804
0.00367298
0.00371784
0.0037626
0.00380725
0.00385176
0.00389611
0.00394028
0.00398425
0.004028
0.0040715
0.00411475
0.00415771
0.00420038
0.00424272
0.00428473
0.00432638
0.00436764
0.00440851
0.00444895
0.00448894
0.00452846
0.00456748
0.00460598
0.00464391
0.00468126
0.00471798
0.00475403
0.00478936
0.00482395
0.00485772
0.00489063
0.00492263
0.00495365
0.00498363
0.0050125
0.00504021
0.0050667
0.00509192
0.00511583
0.0051383
0.00515933
0.00517883
0.00519665
0.00521275
0.00522685
0.0052388
0.00524879
0.00525681
0.00526284
0.00526687
0.00526891
0.00526894
0.00526699
0.00526307
0.00525721
0.00524945
0.00523985
0.00522846
0.00521536
0.00520063
0.00518436
0.00516664
0.00514758
0.00512729
0.00510589
0.00508352
0.00506032
0.00503643
0.00501199
0.00498717
0.00496213
0.00493701
0.00491199
0.00488723
0.0048629
0.00483915
0.00481614
0.00479401
0.00477292
0.00475298
0.0047343
0.004717
0.00470118
0.00468693
0.00467437
0.00466357
0.00465465
0.00464768
0.00464263
0.00463918
0.00463639
0.004633
1.32795e-05
0.000103092
0.000231358
0.000351254
0.00045402
0.00054049
0.000613125
0.000674021
0.000725558
0.000769788
0.000808435
0.000842916
0.000874375
0.000903724
0.00093174
0.000958938
0.000985684
0.00101222
0.00103888
0.00106581
0.00109311
0.00112085
0.00114909
0.00117792
0.00120725
0.00123705
0.0012673
0.00129799
0.00132908
0.00136055
0.00139239
0.00142457
0.00145707
0.00148989
0.00152301
0.0015564
0.00159004
0.00162397
0.00165823
0.00169282