/*--------------------------------*- C++ -*----------------------------------*\
| =========                 |                                                 |
| \\      /  F ield         | OpenFOAM: The Open Source CFD Toolbox           |
|  \\    /   O peration     | Version:  2212                                  |
|   \\  /    A nd           | Website:  www.openfoam.com                      |
|    \\/     M anipulation  |                                                 |
\*---------------------------------------------------------------------------*/
FoamFile
{
    version     2.0;
    format      ascii;
    arch        "LSB;label=32;scalar=64";
    class       volScalarField;
    location    "200";
    object      p;
}
// * * * * * * * * * * * * * * * * * * * * * * * * * * * * * * * * * * * * * //

dimensions      [0 2 -2 0 0 0 0];

internalField   nonuniform List<scalar> 
12225
(
-2.66213
-4.81936
-5.91198
-6.22574
-6.40258
-6.58137
-6.7295
-6.8412
-6.93289
-7.01592
-7.09336
-7.16628
-7.23636
-7.30562
-7.37655
-7.44866
-7.53651
-7.59047
-5.79236
-6.58003
-6.78496
-6.697
-6.672
-6.73632
-6.81946
-6.89383
-6.96338
-7.0327
-7.10139
-7.16854
-7.23468
-7.30103
-7.36928
-7.44072
-7.52019
-7.62328
-6.17238
-6.10633
-6.22581
-6.31289
-6.4213
-6.56383
-6.6987
-6.8092
-6.90327
-6.98899
-7.06882
-7.14365
-7.21502
-7.28469
-7.3547
-7.42626
-7.50417
-7.58718
-6.04507
-5.95763
-6.21688
-6.40902
-6.53156
-6.65286
-6.76651
-6.86094
-6.94215
-7.01741
-7.08904
-7.15746
-7.22367
-7.28894
-7.3546
-7.42138
-7.49043
-7.55641
-6.03664
-6.05119
-6.29821
-6.46325
-6.55623
-6.65473
-6.75703
-6.84752
-6.92764
-7.00278
-7.07473
-7.14363
-7.21014
-7.27522
-7.33978
-7.40401
-7.46749
-7.52642
-6.09769
-6.14275
-6.32927
-6.46929
-6.55951
-6.65567
-6.75627
-6.84674
-6.92709
-7.00199
-7.07334
-7.1414
-7.20677
-7.27021
-7.33233
-7.39298
-7.45134
-7.50453
-6.1603
-6.20254
-6.34659
-6.47696
-6.57108
-6.66489
-6.76096
-6.84867
-6.9273
-7.0006
-7.07038
-7.13694
-7.2007
-7.26222
-7.3218
-7.37911
-7.43321
-7.48175
-6.21581
-6.253
-6.37053
-6.4914
-6.58498
-6.67416
-6.7647
-6.8492
-6.92602
-6.99779
-7.06609
-7.13122
-7.19344
-7.25309
-7.31027
-7.36457
-7.41511
-7.46014
-6.26758
-6.30142
-6.39901
-6.50788
-6.59801
-6.68266
-6.76819
-6.84949
-6.92439
-6.99452
-7.06121
-7.12475
-7.18528
-7.24296
-7.29778
-7.34932
-7.39686
-7.43914
-6.31667
-6.34727
-6.42868
-6.52531
-6.61092
-6.69143
-6.77225
-6.85011
-6.92274
-6.99097
-7.05584
-7.1176
-7.17629
-7.23195
-7.28449
-7.33355
-7.37857
-7.41866
-6.36288
-6.39
-6.45844
-6.54381
-6.62419
-6.70057
-6.77683
-6.85105
-6.92112
-6.98724
-7.05013
-7.10997
-7.16673
-7.22036
-7.27073
-7.31755
-7.36043
-7.39876
-6.40241
-6.42644
-6.48539
-6.56149
-6.63664
-6.7091
-6.78135
-6.85216
-6.9197
-6.98374
-7.0447
-7.10269
-7.15763
-7.20941
-7.25791
-7.30288
-7.34408
-7.38105
-6.43873
-6.46012
-6.51126
-6.57913
-6.64898
-6.71752
-6.78595
-6.85342
-6.91835
-6.98024
-7.03922
-7.09533
-7.14845
-7.19845
-7.24519
-7.2885
-7.32822
-7.36403
-6.47649
-6.49526
-6.53914
-6.59888
-6.66281
-6.7269
-6.79116
-6.85491
-6.91682
-6.97617
-7.03285
-7.0868
-7.13788
-7.18592
-7.23081
-7.27241
-7.31066
-7.34536
-6.51418
-6.5304
-6.56779
-6.61988
-6.67761
-6.73681
-6.79666
-6.85642
-6.91494
-6.97142
-7.02552
-7.07707
-7.12592
-7.17189
-7.21487
-7.25478
-7.29161
-7.32524
-6.54947
-6.56337
-6.59525
-6.64051
-6.69216
-6.74634
-6.80171
-6.85739
-6.91235
-6.96573
-7.01707
-7.06611
-7.11264
-7.15651
-7.19762
-7.2359
-7.27138
-7.30402
-6.57901
-6.59098
-6.61845
-6.65808
-6.70435
-6.75382
-6.80498
-6.8568
-6.90828
-6.95861
-7.00722
-7.05379
-7.0981
-7.13998
-7.17934
-7.21614
-7.25041
-7.28217
-6.59778
-6.60837
-6.63278
-6.66841
-6.71067
-6.75647
-6.80425
-6.85293
-6.90154
-6.94927
-6.99555
-7.04001
-7.08242
-7.12262
-7.16052
-7.1961
-7.22938
-7.26039
-6.59807
-6.60803
-6.63111
-6.66505
-6.70558
-6.74968
-6.79576
-6.84279
-6.88984
-6.93611
-6.98102
-7.02421
-7.06545
-7.10462
-7.14163
-7.17649
-7.2092
-7.23986
-6.57381
-6.58429
-6.60857
-6.6443
-6.68669
-6.73223
-6.77934
-6.82717
-6.87487
-6.92161
-6.9668
-7.01015
-7.05146
-7.09063
-7.12761
-7.16241
-7.19506
-7.22569
-6.53952
-6.55089
-6.57766
-6.61726
-6.66351
-6.71205
-6.76158
-6.81159
-6.86114
-6.90928
-6.95555
-6.99973
-7.04172
-7.08142
-7.11884
-7.154
-7.187
-7.21795
-6.49718
-6.50928
-6.53983
-6.58607
-6.63799
-6.69011
-6.74268
-6.79585
-6.84818
-6.89846
-6.94633
-6.99177
-7.03473
-7.07516
-7.1131
-7.14866
-7.18193
-7.21306
-6.45021
-6.46162
-6.49668
-6.55298
-6.61259
-6.66875
-6.72462
-6.78113
-6.83631
-6.88884
-6.9386
-6.98566
-7.02994
-7.07143
-7.11022
-7.14648
-7.18036
-7.21211
-6.40114
-6.41021
-6.4516
-6.5193
-6.5857
-6.64683
-6.70834
-6.76948
-6.82743
-6.88168
-6.93281
-6.98097
-7.02604
-7.06805
-7.1072
-7.14371
-7.17774
-7.20942
-6.34998
-6.35128
-6.41424
-6.49609
-6.55985
-6.6207
-6.68843
-6.75628
-6.81886
-6.87651
-6.93048
-6.98094
-7.02769
-7.07088
-7.11084
-7.14789
-7.18238
-7.21477
-6.3037
-6.25524
-6.37114
-6.49282
-6.55559
-6.60844
-6.6733
-6.74023
-6.80217
-6.85986
-6.91458
-6.96607
-7.01392
-7.05819
-7.09919
-7.13726
-7.1726
-7.20536
-6.32079
-6.12279
-6.25611
-6.43437
-6.53983
-6.62064
-6.70033
-6.77286
-6.83612
-6.89349
-6.94692
-6.9964
-7.04181
-7.08349
-7.12191
-7.1575
-7.19075
-7.22271
-6.46168
-6.21422
-6.19082
-6.24613
-6.32918
-6.43781
-6.54923
-6.64706
-6.73195
-6.80845
-6.87819
-6.94105
-6.99728
-7.04773
-7.0932
-7.13435
-7.17197
-7.20737
-6.18966
-6.82038
-6.93912
-6.79923
-6.7116
-6.71897
-6.76121
-6.80615
-6.85177
-6.89999
-6.949
-6.99635
-7.04073
-7.08207
-7.1204
-7.15561
-7.18806
-7.21909
-3.13521
-4.90231
-5.91562
-6.19716
-6.32366
-6.4664
-6.59634
-6.69704
-6.7793
-6.85249
-6.9187
-6.97779
-7.03036
-7.0773
-7.11933
-7.15664
-7.18937
-7.21597
-8.01664
-8.01643
-8.01683
-8.01799
-8.01961
-8.02145
-8.02339
-8.02543
-8.02757
-8.02983
-8.03223
-8.03483
-8.03765
-8.04075
-8.04417
-8.04793
-8.05208
-8.05665
-8.06169
-8.06725
-8.07337
-8.08011
-8.08752
-8.09564
-8.10452
-8.11422
-8.12476
-8.1362
-8.14854
-8.16183
-8.17606
-8.19125
-8.20737
-8.22442
-8.24237
-8.2612
-8.2809
-8.30147
-8.32287
-8.34508
-8.36801
-8.39156
-8.41565
-8.44024
-8.46527
-8.49073
-8.51654
-8.54268
-8.56907
-8.59569
-8.62245
-8.64931
-8.67619
-8.70304
-8.72975
-8.75626
-8.78248
-8.80833
-8.83368
-8.85845
-8.88252
-8.90577
-8.92806
-8.94928
-8.96927
-8.9879
-9.00499
-9.02041
-9.03395
-9.04547
-9.05475
-9.06163
-9.06588
-9.06734
-9.06575
-9.06095
-9.05268
-9.04073
-9.02485
-9.00483
-8.98043
-8.95142
-8.91754
-8.8786
-8.83431
-8.78447
-8.72881
-8.66712
-8.59915
-8.52469
-8.44355
-8.35553
-8.26046
-8.15822
-8.04877
-7.93211
-7.80808
-7.67619
-7.53602
-7.38756
-7.23094
-7.06618
-6.8933
-6.71234
-6.52332
-6.32633
-6.12145
-5.90882
-5.68861
-5.46102
-5.22627
-4.98463
-4.73639
-4.48186
-4.22142
-3.95543
-3.68432
-3.40853
-3.1285
-2.84471
-2.55765
-2.26783
-1.97577
-1.68202
-1.38707
-1.09144
-0.795642
-0.500183
-0.205535
0.0878373
0.379491
0.668985
0.955926
1.23993
1.52067
1.79782
2.07112
2.34035
2.60533
2.8659
3.12192
3.37331
3.62006
3.86219
4.09974
4.33284
4.56159
4.78619
5.00684
5.22378
5.43728
5.64767
5.85525
6.06041
6.26353
6.46503
6.66534
6.86492
7.06422
7.26374
7.46395
7.66534
7.86836
8.07349
8.28114
8.49168
8.70551
8.92304
9.14434
9.36902
9.59679
9.8277
10.0617
10.2983
10.5373
10.7779
11.0202
11.2636
11.5189
11.7747
-8.01642
-8.01647
-8.01698
-8.01807
-8.0194
-8.02069
-8.02188
-8.02301
-8.0242
-8.02556
-8.02716
-8.02906
-8.03125
-8.03373
-8.03652
-8.03966
-8.04318
-8.04714
-8.05157
-8.05653
-8.06207
-8.06824
-8.07511
-8.08273
-8.09114
-8.10041
-8.11055
-8.12162
-8.13363
-8.14661
-8.16056
-8.17548
-8.19136
-8.20818
-8.22591
-8.24453
-8.26399
-8.28428
-8.30537
-8.3272
-8.34972
-8.37287
-8.39657
-8.42078
-8.44545
-8.47055
-8.49601
-8.5218
-8.54786
-8.57415
-8.6006
-8.62715
-8.65374
-8.68031
-8.70676
-8.73304
-8.75905
-8.7847
-8.8099
-8.83454
-8.8585
-8.88168
-8.90393
-8.92515
-8.94518
-8.96389
-8.9811
-8.99668
-9.01043
-9.0222
-9.03178
-9.03901
-9.04368
-9.04559
-9.04453
-9.0403
-9.03266
-9.02141
-9.00629
-8.9871
-8.96359
-8.93554
-8.9027
-8.86485
-8.82175
-8.77317
-8.71886
-8.6586
-8.59216
-8.51934
-8.43995
-8.35377
-8.26063
-8.16033
-8.05269
-7.93749
-7.81445
-7.68352
-7.54481
-7.39825
-7.24369
-7.08109
-6.9104
-6.73164
-6.54485
-6.35008
-6.14743
-5.93702
-5.719
-5.49358
-5.26095
-5.02138
-4.77515
-4.52257
-4.26399
-3.99978
-3.73035
-3.45612
-3.17754
-2.89508
-2.60922
-2.32047
-2.02935
-1.73638
-1.4421
-1.14699
-0.851572
-0.556343
-0.261798
0.0316146
0.323435
0.613233
0.900599
1.18516
1.46656
1.74448
2.01864
2.28883
2.55484
2.8165
3.07366
3.32623
3.57418
3.81753
4.05631
4.29062
4.52057
4.74633
4.96809
5.18609
5.40059
5.61189
5.82031
6.02622
6.22998
6.43201
6.63272
6.83258
7.03203
7.23156
7.43164
7.63275
7.83534
8.03991
8.2469
8.45669
8.66957
8.88593
9.10578
9.32884
9.55502
9.78438
10.0169
10.2522
10.49
10.7299
10.9725
11.2166
11.4755
11.7252
-8.01276
-8.01355
-8.01488
-8.0163
-8.01745
-8.01825
-8.01879
-8.01921
-8.01966
-8.02025
-8.02107
-8.02217
-8.0236
-8.0254
-8.0276
-8.03022
-8.03331
-8.03689
-8.04103
-8.04576
-8.05113
-8.05721
-8.06403
-8.07163
-8.08006
-8.08936
-8.09954
-8.11063
-8.12263
-8.13557
-8.14941
-8.16418
-8.17985
-8.1964
-8.21381
-8.23206
-8.2511
-8.27092
-8.29147
-8.31273
-8.33464
-8.35716
-8.38023
-8.40382
-8.42788
-8.45236
-8.47722
-8.50242
-8.5279
-8.55361
-8.57951
-8.60552
-8.6316
-8.65766
-8.68365
-8.70947
-8.73505
-8.76031
-8.78513
-8.80943
-8.83309
-8.856
-8.87803
-8.89906
-8.91894
-8.93754
-8.95471
-8.97027
-8.98407
-8.99594
-9.00569
-9.01314
-9.01809
-9.02034
-9.0197
-9.01595
-9.00886
-8.99823
-8.98382
-8.96542
-8.94278
-8.91567
-8.88386
-8.84713
-8.80523
-8.75793
-8.705
-8.6462
-8.58132
-8.51014
-8.43249
-8.34815
-8.25693
-8.15865
-8.05312
-7.94009
-7.81933
-7.69074
-7.55436
-7.41015
-7.25803
-7.09791
-6.92978
-6.75362
-6.56944
-6.3773
-6.17729
-5.96952
-5.75414
-5.53132
-5.30127
-5.06423
-4.82048
-4.57032
-4.31408
-4.05212
-3.78485
-3.51266
-3.23601
-2.95535
-2.67117
-2.38394
-2.09421
-1.80248
-1.50928
-1.21512
-0.920485
-0.625869
-0.331786
-0.0386886
0.252964
0.542749
0.830247
1.11508
1.39689
1.67535
1.95017
2.22112
2.48798
2.75057
3.00874
3.26237
3.51143
3.7559
3.99583
4.23128
4.46235
4.6892
4.912
5.13098
5.34638
5.55848
5.76761
5.97408
6.17829
6.38061
6.58147
6.78129
6.98053
7.17964
7.3791
7.57942
7.78103
7.98438
8.18998
8.39827
8.60955
8.82413
9.0421
9.26333
9.48779
9.71553
9.94648
10.1805
10.4173
10.6568
10.8999
11.1448
11.4069
11.6441
-8.00533
-8.00712
-8.00986
-8.01219
-8.01378
-8.01481
-8.01545
-8.01588
-8.01624
-8.01667
-8.01728
-8.01814
-8.01933
-8.02089
-8.02287
-8.02531
-8.02826
-8.03176
-8.03585
-8.04058
-8.04599
-8.05213
-8.05902
-8.06671
-8.07522
-8.08459
-8.09482
-8.10593
-8.11791
-8.13077
-8.14451
-8.15911
-8.17456
-8.19085
-8.20796
-8.22585
-8.2445
-8.26389
-8.28398
-8.30474
-8.32613
-8.34812
-8.37066
-8.39371
-8.41724
-8.44121
-8.46556
-8.49027
-8.51527
-8.54053
-8.56598
-8.59158
-8.61726
-8.64295
-8.66859
-8.69409
-8.71938
-8.74437
-8.76896
-8.79306
-8.81655
-8.83932
-8.86126
-8.88222
-8.90209
-8.9207
-8.93792
-8.95359
-8.96754
-8.9796
-8.98958
-8.99732
-9.00261
-9.00525
-9.00505
-9.00179
-8.99526
-8.98523
-8.97149
-8.95381
-8.93196
-8.9057
-8.8748
-8.83903
-8.79816
-8.75195
-8.70016
-8.64257
-8.57896
-8.50911
-8.43282
-8.34989
-8.26013
-8.16334
-8.05932
-7.94789
-7.82883
-7.70206
-7.56753
-7.42518
-7.27494
-7.11675
-6.95055
-6.77635
-6.59415
-6.404
-6.20598
-6.0002
-5.78679
-5.56592
-5.33779
-5.10264
-4.86072
-4.61235
-4.35783
-4.09753
-3.83183
-3.56114
-3.28589
-3.00653
-2.72354
-2.43741
-2.14866
-1.85779
-1.56534
-1.27182
-0.977719
-0.683507
-0.389694
-0.0967581
0.19485
0.484703
0.772388
1.05752
1.33972
1.61869
1.89411
2.16575
2.43337
2.69678
2.95584
3.21041
3.46046
3.70595
3.94692
4.18341
4.41553
4.64339
4.86719
5.08712
5.30343
5.51636
5.72624
5.93338
6.13815
6.34091
6.54206
6.74202
6.94127
7.14021
7.3393
7.53904
7.7399
7.94233
8.14676
8.3536
8.56317
8.77579
8.99162
9.21072
9.43311
9.65884
9.88786
10.1201
10.3554
10.5935
10.8356
11.0793
11.3394
11.5629
-7.99551
-7.99843
-8.00299
-8.00667
-8.00912
-8.01076
-8.01188
-8.01267
-8.01329
-8.01392
-8.01467
-8.01566
-8.01695
-8.01863
-8.02073
-8.02333
-8.02645
-8.03014
-8.03444
-8.0394
-8.04505
-8.05143
-8.05856
-8.06647
-8.07518
-8.08471
-8.09507
-8.10627
-8.1183
-8.13117
-8.14487
-8.15939
-8.17471
-8.19082
-8.20769
-8.22532
-8.24368
-8.26274
-8.28246
-8.30284
-8.32383
-8.34541
-8.36753
-8.39017
-8.41329
-8.43686
-8.46083
-8.48516
-8.50981
-8.53473
-8.55986
-8.58515
-8.61054
-8.63597
-8.66137
-8.68665
-8.71175
-8.73657
-8.76102
-8.785
-8.80841
-8.83112
-8.85303
-8.874
-8.8939
-8.91258
-8.92991
-8.94571
-8.95983
-8.97209
-8.98232
-8.99033
-8.99594
-8.99894
-8.99914
-8.99631
-8.99026
-8.98075
-8.96757
-8.95049
-8.92928
-8.90371
-8.87354
-8.83854
-8.79848
-8.75312
-8.70223
-8.64557
-8.58292
-8.51408
-8.43883
-8.35697
-8.26829
-8.17261
-8.06973
-7.95948
-7.84168
-7.71623
-7.58303
-7.442
-7.29308
-7.13621
-6.97133
-6.79845
-6.61756
-6.42872
-6.23199
-6.02748
-5.81532
-5.59568
-5.36874
-5.13474
-4.89394
-4.64662
-4.39311
-4.13376
-3.86895
-3.59909
-3.3246
-3.04593
-2.76356
-2.47798
-2.1897
-1.89924
-1.6071
-1.31383
-1.01992
-0.725839
-0.432064
-0.139105
0.152601
0.442608
0.730522
1.01593
1.29848
1.57783
1.8537
2.12582
2.39395
2.6579
2.91751
3.17268
3.42332
3.66943
3.911
4.1481
4.3808
4.60925
4.83359
5.05403
5.2708
5.48417
5.69441
5.90185
6.10684
6.30976
6.51097
6.71089
6.90995
7.10862
7.30731
7.50651
7.70665
7.90818
8.11153
8.31711
8.52524
8.73625
8.95032
9.16761
9.38821
9.61221
9.83956
10.0702
10.3039
10.5406
10.7812
11.0224
11.2783
11.4891
-7.98533
-7.98927
-7.99567
-8.00082
-8.0043
-8.00676
-8.00856
-8.00991
-8.01102
-8.01206
-8.01318
-8.01451
-8.01612
-8.01812
-8.02054
-8.02346
-8.02692
-8.03095
-8.03561
-8.04091
-8.0469
-8.05361
-8.06104
-8.06924
-8.0782
-8.08795
-8.09849
-8.10983
-8.12195
-8.13486
-8.14855
-8.16302
-8.17825
-8.19422
-8.21093
-8.22836
-8.24648
-8.26528
-8.28473
-8.30482
-8.3255
-8.34677
-8.36859
-8.39092
-8.41374
-8.43701
-8.4607
-8.48475
-8.50914
-8.53381
-8.55871
-8.5838
-8.609
-8.63426
-8.65951
-8.68467
-8.70966
-8.7344
-8.7588
-8.78275
-8.80615
-8.82889
-8.85084
-8.87189
-8.89189
-8.9107
-8.92817
-8.94416
-8.95849
-8.97099
-8.98148
-8.98979
-8.99572
-8.99907
-8.99964
-8.99723
-8.99161
-8.98257
-8.96988
-8.95332
-8.93266
-8.90767
-8.87811
-8.84374
-8.80434
-8.75966
-8.70948
-8.65356
-8.59167
-8.5236
-8.44915
-8.3681
-8.28025
-8.1854
-8.08338
-7.974
-7.8571
-7.73257
-7.60029
-7.46018
-7.31217
-7.15618
-6.99217
-6.82014
-6.6401
-6.45207
-6.25613
-6.05239
-5.84096
-5.62201
-5.39574
-5.16236
-4.92213
-4.67534
-4.42232
-4.16341
-3.89899
-3.62946
-3.35525
-3.07681
-2.79462
-2.50918
-2.22099
-1.93057
-1.63844
-1.34512
-1.05114
-0.756954
-0.463049
-0.169918
0.121983
0.412222
0.700386
0.986068
1.2689
1.54856
1.82473
2.09716
2.36559
2.62983
2.88972
3.14515
3.39605
3.64238
3.88415
4.12143
4.35427
4.58282
4.80721
5.02766
5.2444
5.45768
5.66778
5.87501
6.07972
6.28228
6.48307
6.6825
6.88099
7.07899
7.27693
7.47528
7.67448
7.87498
8.07723
8.2816
8.48845
8.69808
8.91073
9.12658
9.34579
9.56843
9.7945
10.0239
10.2565
10.4919
10.7309
10.9696
11.2214
11.4212
-7.97656
-7.9813
-7.9892
-7.99571
-8.00023
-8.00354
-8.00609
-8.00811
-8.0098
-8.01138
-8.013
-8.01479
-8.01685
-8.01927
-8.02212
-8.02546
-8.02932
-8.03376
-8.0388
-8.04449
-8.05084
-8.05788
-8.06563
-8.07411
-8.08333
-8.09329
-8.10401
-8.11548
-8.12769
-8.14066
-8.15438
-8.16883
-8.184
-8.1999
-8.2165
-8.23379
-8.25176
-8.27038
-8.28964
-8.30953
-8.33001
-8.35106
-8.37266
-8.39478
-8.41739
-8.44046
-8.46396
-8.48783
-8.51205
-8.53658
-8.56135
-8.58631
-8.61142
-8.6366
-8.66179
-8.68692
-8.7119
-8.73665
-8.76108
-8.78508
-8.80856
-8.83139
-8.85347
-8.87465
-8.89481
-8.91381
-8.93149
-8.9477
-8.96227
-8.97504
-8.98582
-8.99444
-9.00069
-9.00439
-9.00532
-9.00329
-8.99807
-8.98944
-8.97719
-8.96108
-8.94089
-8.91638
-8.88731
-8.85346
-8.81459
-8.77045
-8.72082
-8.66546
-8.60415
-8.53666
-8.4628
-8.38235
-8.29509
-8.20084
-8.09942
-7.99064
-7.87437
-7.75045
-7.61878
-7.47926
-7.33181
-7.17636
-7.01288
-6.84135
-6.66177
-6.47419
-6.27866
-6.0753
-5.86421
-5.64557
-5.41956
-5.18641
-4.94637
-4.69973
-4.44682
-4.18796
-3.92356
-3.654
-3.37973
-3.10119
-2.81887
-2.53327
-2.24489
-1.95425
-1.66188
-1.36831
-1.07406
-0.779613
-0.485454
-0.192048
0.100127
0.390657
0.679099
0.965061
1.24816
1.52807
1.80447
2.07708
2.34568
2.61005
2.87005
3.12554
3.37648
3.62279
3.86451
4.10166
4.33435
4.56268
4.78682
5.00694
5.22328
5.43609
5.64566
5.85229
6.05634
6.25815
6.45813
6.65666
6.8542
7.05117
7.24802
7.44522
7.64323
7.84249
8.04345
8.24651
8.45203
8.66034
8.87167
9.08625
9.30426
9.52578
9.7508
9.9792
10.2108
10.4452
10.6827
10.919
11.1672
11.3579
-7.97035
-7.97566
-7.98451
-7.99206
-7.99749
-8.0016
-8.00486
-8.00753
-8.00983
-8.01197
-8.01412
-8.01642
-8.01896
-8.02184
-8.02514
-8.0289
-8.03318
-8.03802
-8.04345
-8.04951
-8.0562
-8.06356
-8.07161
-8.08035
-8.08979
-8.09995
-8.11083
-8.12243
-8.13475
-8.14779
-8.16154
-8.176
-8.19116
-8.20702
-8.22356
-8.24077
-8.25865
-8.27717
-8.29631
-8.31607
-8.33643
-8.35735
-8.37882
-8.40082
-8.42331
-8.44628
-8.46967
-8.49346
-8.51761
-8.54208
-8.5668
-8.59175
-8.61685
-8.64205
-8.66727
-8.69245
-8.7175
-8.74235
-8.76688
-8.79102
-8.81464
-8.83764
-8.85989
-8.88128
-8.90165
-8.92088
-8.9388
-8.95527
-8.97011
-8.98317
-8.99424
-9.00316
-9.00974
-9.01376
-9.01503
-9.01335
-9.00848
-9.00022
-8.98834
-8.97261
-8.95281
-8.92869
-8.90002
-8.86657
-8.8281
-8.78437
-8.73514
-8.6802
-8.61929
-8.55222
-8.47877
-8.39872
-8.31186
-8.218
-8.11696
-8.00856
-7.89265
-7.76909
-7.63776
-7.49856
-7.3514
-7.19622
-7.03297
-6.86165
-6.68225
-6.49481
-6.29939
-6.0961
-5.88505
-5.66641
-5.44036
-5.20714
-4.96698
-4.72019
-4.46708
-4.20801
-3.94334
-3.67349
-3.39889
-3.12001
-2.83733
-2.55135
-2.26259
-1.97156
-1.67879
-1.38482
-1.09018
-0.795378
-0.500884
-0.207159
0.0853331
0.376162
0.664888
0.951101
1.23443
1.51452
1.79107
2.06379
2.33244
2.59682
2.85678
3.1122
3.36301
3.60916
3.85065
4.08751
4.31985
4.54776
4.77142
4.991
5.20672
5.41885
5.62766
5.83346
6.03659
6.23742
6.43635
6.63376
6.83011
7.02584
7.22139
7.41725
7.61388
7.81173
8.01127
8.21291
8.41702
8.62396
8.83398
9.04733
9.2642
9.48468
9.70874
9.93626
10.167
10.4003
10.6364
10.8705
11.1156
11.2991
-7.96723
-7.9728
-7.98208
-7.99029
-7.99641
-8.00116
-8.00503
-8.00828
-8.01113
-8.0138
-8.01645
-8.01922
-8.02222
-8.02554
-8.02925
-8.03342
-8.03808
-8.04328
-8.04906
-8.05543
-8.06243
-8.07007
-8.07837
-8.08734
-8.09698
-8.10732
-8.11835
-8.13007
-8.14249
-8.1556
-8.16941
-8.1839
-8.19908
-8.21493
-8.23146
-8.24864
-8.26648
-8.28496
-8.30405
-8.32376
-8.34406
-8.36493
-8.38636
-8.40831
-8.43077
-8.45371
-8.47709
-8.50088
-8.52505
-8.54954
-8.57432
-8.59932
-8.6245
-8.64979
-8.67513
-8.70043
-8.72563
-8.75063
-8.77534
-8.79966
-8.82349
-8.84671
-8.86919
-8.89081
-8.91144
-8.93092
-8.94911
-8.96585
-8.98098
-8.99431
-9.00568
-9.0149
-9.02177
-9.02609
-9.02767
-9.02628
-9.02172
-9.01377
-9.00219
-8.98676
-8.96725
-8.94343
-8.91505
-8.88189
-8.84371
-8.80026
-8.75131
-8.69663
-8.63599
-8.56917
-8.49596
-8.41614
-8.3295
-8.23585
-8.13499
-8.02678
-7.91103
-7.78761
-7.6564
-7.51729
-7.3702
-7.21505
-7.05181
-6.88045
-6.70098
-6.51344
-6.31789
-6.11443
-5.90317
-5.68429
-5.45796
-5.22442
-4.98392
-4.73674
-4.48322
-4.2237
-3.95856
-3.68822
-3.41312
-3.13372
-2.85051
-2.56401
-2.27472
-1.98318
-1.68992
-1.39548
-1.10038
-0.805178
-0.510322
-0.216273
0.0765273
0.367626
0.656595
0.942999
1.22647
1.50665
1.78324
2.05595
2.32454
2.58881
2.84859
3.10379
3.35431
3.60013
3.8412
4.07761
4.30941
4.53674
4.75973
4.97857
5.19349
5.40475
5.61261
5.81742
6.01948
6.21918
6.41691
6.61308
6.80812
7.00249
7.19665
7.39108
7.58624
7.78263
7.98069
8.18088
8.38358
8.58915
8.7979
9.01008
9.22587
9.44538
9.66858
9.89527
10.1252
10.3575
10.5923
10.8243
11.067
11.2448
-7.96722
-7.97276
-7.98204
-7.99052
-7.99706
-8.00225
-8.00658
-8.01028
-8.01359
-8.0167
-8.01978
-8.02297
-8.02636
-8.03006
-8.03413
-8.03863
-8.04362
-8.04913
-8.05519
-8.06183
-8.06908
-8.07694
-8.08545
-8.09461
-8.10442
-8.11491
-8.12607
-8.1379
-8.15042
-8.16361
-8.17748
-8.19202
-8.20724
-8.22313
-8.23967
-8.25688
-8.27473
-8.29321
-8.31232
-8.33204
-8.35235
-8.37324
-8.39469
-8.41668
-8.43918
-8.46217
-8.48561
-8.50948
-8.53373
-8.55833
-8.58322
-8.60836
-8.63368
-8.65914
-8.68465
-8.71014
-8.73553
-8.76075
-8.78568
-8.81024
-8.8343
-8.85776
-8.8805
-8.90238
-8.92327
-8.94302
-8.96148
-8.97848
-8.99387
-9.00748
-9.01911
-9.02858
-9.03571
-9.04028
-9.0421
-9.04096
-9.03663
-9.0289
-9.01754
-9.00232
-8.98302
-8.95939
-8.9312
-8.89821
-8.86019
-8.8169
-8.7681
-8.71355
-8.65303
-8.58632
-8.5132
-8.43346
-8.34688
-8.25327
-8.15244
-8.04423
-7.92847
-7.80501
-7.67374
-7.53454
-7.38732
-7.23202
-7.06859
-6.89701
-6.71729
-6.52945
-6.33358
-6.12975
-5.9181
-5.69878
-5.47199
-5.23795
-4.99692
-4.74919
-4.49509
-4.23496
-3.96921
-3.69823
-3.42249
-3.14246
-2.85862
-2.57149
-2.2816
-1.98949
-1.69568
-1.40073
-1.10517
-0.809562
-0.514358
-0.220006
0.0730483
0.364376
0.653528
0.940062
1.22359
1.50377
1.78029
2.05286
2.32125
2.58526
2.84473
3.09954
3.3496
3.59489
3.83537
4.07112
4.30219
4.52872
4.75085
4.96877
5.18271
5.39293
5.5997
5.80335
6.00421
6.20265
6.39907
6.59389
6.78755
6.9805
7.1732
7.36616
7.55984
7.75474
7.95135
8.15009
8.35142
8.55568
8.76322
8.97428
9.18909
9.40771
9.63011
9.85605
10.0852
10.3166
10.5502
10.7804
11.021
11.1945
-7.97001
-7.97532
-7.98424
-7.99264
-7.99932
-8.00475
-8.00935
-8.01336
-8.017
-8.02044
-8.02385
-8.02736
-8.03106
-8.03506
-8.03941
-8.04419
-8.04943
-8.05517
-8.06145
-8.06831
-8.07575
-8.08379
-8.09247
-8.10177
-8.11173
-8.12234
-8.13361
-8.14554
-8.15814
-8.17141
-8.18535
-8.19997
-8.21524
-8.23118
-8.24779
-8.26504
-8.28295
-8.30149
-8.32066
-8.34044
-8.36083
-8.3818
-8.40333
-8.42541
-8.44802
-8.47113
-8.4947
-8.51871
-8.54311
-8.56787
-8.59294
-8.61826
-8.64378
-8.66944
-8.69517
-8.72089
-8.74651
-8.77197
-8.79714
-8.82195
-8.84626
-8.86998
-8.89297
-8.9151
-8.93623
-8.95622
-8.97492
-8.99215
-9.00777
-9.02158
-9.03342
-9.04309
-9.0504
-9.05515
-9.05713
-9.05614
-9.05195
-9.04435
-9.03311
-9.018
-8.99878
-8.97524
-8.94711
-8.91418
-8.87621
-8.83294
-8.78416
-8.72961
-8.66908
-8.60234
-8.52918
-8.44938
-8.36272
-8.26901
-8.16807
-8.05972
-7.9438
-7.82016
-7.68867
-7.54923
-7.40174
-7.24614
-7.08237
-6.91042
-6.7303
-6.54203
-6.34568
-6.14135
-5.92916
-5.70927
-5.48188
-5.24722
-5.00555
-4.75715
-4.50236
-4.24154
-3.97507
-3.70338
-3.42693
-3.14619
-2.86167
-2.57388
-2.28336
-1.99065
-1.69629
-1.40082
-1.10482
-0.808807
-0.513271
-0.218649
0.0746074
0.366093
0.655346
0.941913
1.2254
1.50545
1.78176
2.05404
2.32208
2.58564
2.8446
3.09881
3.34823
3.59278
3.83248
4.06735
4.29751
4.52304
4.74413
4.96094
5.17373
5.38274
5.58827
5.79062
5.99015
6.18722
6.38224
6.57562
6.76783
6.9593
7.15052
7.34199
7.5342
7.72764
7.92282
8.1202
8.32021
8.52325
8.72967
8.93974
9.15366
9.37151
9.59322
9.81852
10.047
10.2776
10.5101
10.7388
10.9776
11.1479
-7.97514
-7.98005
-7.98835
-7.99639
-8.00296
-8.0084
-8.01309
-8.01726
-8.02108
-8.02473
-8.02835
-8.03208
-8.036
-8.04021
-8.04477
-8.04973
-8.05516
-8.06108
-8.06752
-8.07452
-8.0821
-8.09028
-8.09908
-8.1085
-8.11856
-8.12926
-8.14062
-8.15264
-8.16533
-8.17868
-8.1927
-8.20739
-8.22275
-8.23877
-8.25546
-8.2728
-8.29079
-8.30942
-8.32869
-8.34858
-8.36908
-8.39018
-8.41186
-8.43409
-8.45685
-8.48012
-8.50387
-8.52806
-8.55266
-8.57762
-8.60289
-8.62843
-8.65417
-8.68005
-8.70601
-8.73196
-8.75783
-8.78352
-8.80893
-8.83396
-8.8585
-8.88244
-8.90564
-8.92797
-8.94929
-8.96946
-8.98833
-9.00572
-9.02147
-9.03541
-9.04736
-9.05713
-9.06453
-9.06935
-9.07138
-9.07043
-9.06627
-9.05868
-9.04744
-9.03231
-9.01307
-8.98947
-8.9613
-8.9283
-8.89024
-8.84688
-8.79799
-8.74332
-8.68265
-8.61576
-8.54244
-8.46245
-8.3756
-8.28168
-8.1805
-8.07189
-7.9557
-7.83176
-7.69995
-7.56015
-7.41228
-7.25627
-7.09206
-6.91964
-6.73901
-6.55021
-6.35329
-6.14837
-5.93556
-5.71503
-5.48697
-5.25162
-5.00923
-4.76011
-4.50459
-4.24302
-3.97581
-3.70338
-3.42619
-3.14473
-2.85951
-2.57105
-2.27988
-1.98656
-1.69165
-1.3957
-1.09928
-0.802908
-0.507083
-0.212271
0.081096
0.372617
0.661843
0.9483
1.23159
1.51135
1.78727
2.05909
2.32657
2.58951
2.84776
3.1012
3.34976
3.59339
3.8321
4.06593
4.29496
4.51933
4.73919
4.95474
5.16621
5.37386
5.578
5.77892
5.977
6.1726
6.36613
6.55801
6.7487
6.93866
7.12838
7.31836
7.5091
7.70112
7.89492
8.09099
8.28977
8.4917
8.6971
8.90628
9.11942
9.33661
9.55773
9.78249
10.0104
10.2403
10.4719
10.6993
10.9367
11.1048
-7.98207
-7.98648
-7.99397
-8.00141
-8.00765
-8.01292
-8.01753
-8.02168
-8.02554
-8.02926
-8.03298
-8.03682
-8.04086
-8.04519
-8.04986
-8.05495
-8.06048
-8.06651
-8.07306
-8.08016
-8.08783
-8.0961
-8.10498
-8.11448
-8.12462
-8.13541
-8.14685
-8.15895
-8.17172
-8.18515
-8.19926
-8.21404
-8.22949
-8.24561
-8.26239
-8.27983
-8.29792
-8.31667
-8.33606
-8.35609
-8.37674
-8.398
-8.41985
-8.44226
-8.46522
-8.48868
-8.51263
-8.53702
-8.56181
-8.58698
-8.61245
-8.6382
-8.66415
-8.69024
-8.7164
-8.74255
-8.76861
-8.79448
-8.82007
-8.84527
-8.86996
-8.89403
-8.91735
-8.93979
-8.9612
-8.98145
-9.00036
-9.01779
-9.03356
-9.04751
-9.05944
-9.06918
-9.07652
-9.08127
-9.08323
-9.08218
-9.07791
-9.0702
-9.05882
-9.04354
-9.02414
-9.00037
-8.97201
-8.93882
-8.90056
-8.85699
-8.80787
-8.75297
-8.69205
-8.62491
-8.55131
-8.47105
-8.38391
-8.28969
-8.18819
-8.07924
-7.96269
-7.83837
-7.70616
-7.56595
-7.41763
-7.26116
-7.09646
-6.92352
-6.74235
-6.55298
-6.35548
-6.14993
-5.93648
-5.71528
-5.48653
-5.25046
-5.00735
-4.75749
-4.50121
-4.23888
-3.97091
-3.69774
-3.41982
-3.13765
-2.85174
-2.56263
-2.27086
-1.977
-1.68161
-1.38526
-1.0885
-0.791862
-0.495868
-0.201005
0.0923252
0.383723
0.672749
0.958923
1.24182
1.5211
1.79645
2.0676
2.33432
2.59644
2.85378
3.10625
3.35375
3.59627
3.83379
4.06638
4.29411
4.51713
4.73559
4.94972
5.15972
5.36589
5.5685
5.7679
5.96442
6.15847
6.35044
6.54077
6.72991
6.91835
7.10657
7.29508
7.48441
7.67506
7.86757
8.06242
8.26009
8.461
8.66552
8.87394
9.08645
9.3031
9.52377
9.7481
9.97556
10.2049
10.4357
10.6621
10.8983
11.0651
-7.99026
-7.99411
-8.00068
-8.00737
-8.01311
-8.01802
-8.02238
-8.02636
-8.0301
-8.03376
-8.03745
-8.04128
-8.04533
-8.04968
-8.0544
-8.05952
-8.06511
-8.07118
-8.07779
-8.08494
-8.09267
-8.101
-8.10994
-8.1195
-8.12971
-8.14056
-8.15207
-8.16424
-8.17708
-8.19059
-8.20477
-8.21963
-8.23516
-8.25137
-8.26825
-8.2858
-8.30401
-8.32289
-8.34242
-8.3626
-8.38341
-8.40484
-8.42686
-8.44946
-8.47259
-8.49623
-8.52035
-8.54491
-8.56987
-8.59518
-8.62081
-8.6467
-8.67279
-8.69901
-8.72529
-8.75155
-8.7777
-8.80364
-8.82929
-8.85452
-8.87923
-8.9033
-8.92659
-8.94898
-8.97033
-8.99049
-9.00929
-9.0266
-9.04222
-9.056
-9.06776
-9.0773
-9.08443
-9.08896
-9.09068
-9.08939
-9.08486
-9.07688
-9.06522
-9.04967
-9.02998
-9.00593
-8.97728
-8.94379
-8.90523
-8.86136
-8.81193
-8.75672
-8.69549
-8.62802
-8.55411
-8.47352
-8.38604
-8.29147
-8.18961
-8.0803
-7.96336
-7.83864
-7.70601
-7.56536
-7.4166
-7.25964
-7.09445
-6.92099
-6.73927
-6.54933
-6.35124
-6.14507
-5.93098
-5.70912
-5.4797
-5.24294
-4.99912
-4.74855
-4.49155
-4.22851
-3.95984
-3.68597
-3.40739
-3.12458
-2.83807
-2.5484
-2.25613
-1.96183
-1.66609
-1.36945
-1.07247
-0.775717
-0.479726
-0.184975
0.108135
0.399222
0.687849
0.973531
1.25584
1.53443
1.80898
2.07926
2.34502
2.60609
2.86231
3.11359
3.35985
3.60104
3.83719
4.06836
4.29462
4.51612
4.73304
4.94559
5.154
5.35856
5.55955
5.75733
5.95223
6.14466
6.33504
6.52379
6.71138
6.8983
7.08505
7.27215
7.46011
7.64948
7.84079
8.03453
8.2312
8.43123
8.635
8.84279
9.05479
9.27103
9.49137
9.71539
9.94251
10.1714
10.4017
10.6272
10.8624
11.0286
-7.99923
-8.0025
-8.00811
-8.01393
-8.01901
-8.02342
-8.02736
-8.03101
-8.03449
-8.03794
-8.04147
-8.04517
-8.04914
-8.05342
-8.05809
-8.0632
-8.06877
-8.07485
-8.08146
-8.08864
-8.09639
-8.10475
-8.11372
-8.12332
-8.13356
-8.14445
-8.156
-8.16821
-8.1811
-8.19466
-8.2089
-8.22383
-8.23944
-8.25573
-8.2727
-8.29035
-8.30867
-8.32767
-8.34732
-8.36762
-8.38855
-8.4101
-8.43224
-8.45494
-8.47817
-8.50191
-8.5261
-8.55073
-8.57574
-8.60109
-8.62674
-8.65264
-8.67872
-8.70491
-8.73115
-8.75734
-8.7834
-8.80924
-8.83475
-8.85983
-8.88436
-8.90822
-8.93129
-8.95344
-8.97452
-8.9944
-9.0129
-9.02989
-9.04519
-9.05863
-9.07003
-9.07921
-9.08597
-9.09013
-9.09147
-9.08979
-9.08488
-9.07652
-9.06449
-9.04855
-9.02849
-9.00406
-8.97504
-8.94119
-8.90226
-8.85802
-8.80825
-8.75268
-8.69111
-8.6233
-8.54905
-8.46812
-8.3803
-8.28537
-8.18316
-8.07349
-7.95618
-7.83108
-7.69806
-7.55699
-7.4078
-7.2504
-7.08475
-6.91082
-6.72861
-6.53815
-6.33951
-6.1328
-5.91813
-5.69569
-5.46566
-5.2283
-4.98386
-4.73266
-4.47505
-4.2114
-3.94214
-3.6677
-3.38858
-3.10526
-2.81829
-2.52822
-2.23561
-1.94105
-1.64511
-1.34833
-1.05132
-0.754652
-0.458867
-0.164429
0.128253
0.418809
0.706808
0.991767
1.27326
1.55092
1.82446
2.09362
2.3582
2.618
2.87291
3.12279
3.3676
3.60729
3.8419
4.07146
4.2961
4.51595
4.73119
4.94204
5.14876
5.35162
5.55093
5.74702
5.94027
6.13107
6.31984
6.50702
6.6931
6.87855
7.06388
7.24964
7.43634
7.62452
7.81474
8.00751
8.20332
8.40261
8.60576
8.81308
9.02471
9.24069
9.4608
9.68465
9.91155
10.1402
10.3699
10.5948
10.8293
10.9955
-8.00896
-8.01166
-8.01629
-8.02118
-8.02546
-8.02917
-8.03252
-8.03564
-8.03868
-8.04175
-8.04497
-8.04842
-8.05218
-8.05631
-8.06085
-8.06586
-8.07136
-8.07739
-8.08396
-8.0911
-8.09883
-8.10717
-8.11612
-8.12571
-8.13593
-8.14681
-8.15835
-8.17056
-8.18344
-8.19701
-8.21126
-8.2262
-8.24181
-8.25812
-8.2751
-8.29278
-8.31112
-8.33014
-8.3498
-8.37011
-8.39102
-8.41254
-8.43463
-8.45726
-8.48041
-8.50405
-8.52813
-8.55262
-8.57747
-8.60265
-8.6281
-8.65378
-8.67962
-8.70556
-8.73151
-8.75739
-8.78311
-8.80859
-8.83372
-8.85839
-8.88249
-8.90591
-8.92852
-8.95019
-8.97079
-8.99016
-9.00816
-9.02463
-9.03941
-9.05233
-9.06322
-9.07188
-9.07813
-9.08178
-9.08262
-9.08045
-9.07507
-9.06623
-9.05374
-9.03735
-9.01686
-8.99201
-8.96258
-8.92832
-8.88902
-8.84441
-8.79428
-8.73839
-8.6765
-8.60838
-8.53381
-8.45257
-8.36444
-8.26921
-8.16669
-8.05671
-7.93909
-7.81368
-7.68033
-7.53894
-7.38941
-7.23166
-7.06564
-6.89133