/*--------------------------------*- C++ -*----------------------------------*\
| =========                 |                                                 |
| \\      /  F ield         | OpenFOAM: The Open Source CFD Toolbox           |
|  \\    /   O peration     | Version:  2212                                  |
|   \\  /    A nd           | Website:  www.openfoam.com                      |
|    \\/     M anipulation  |                                                 |
\*---------------------------------------------------------------------------*/
FoamFile
{
    version     2.0;
    format      ascii;
    arch        "LSB;label=32;scalar=64";
    class       surfaceScalarField;
    location    "200";
    object      phi;
}
// * * * * * * * * * * * * * * * * * * * * * * * * * * * * * * * * * * * * * //

dimensions      [0 3 -1 0 0 0 0];

oriented        oriented;

internalField   nonuniform List<scalar> 
24170
(
3.11512e-06
7.3289e-08
3.01296e-06
1.0215e-07
2.91749e-06
9.54686e-08
2.82631e-06
9.11758e-08
2.74031e-06
8.60013e-08
2.66279e-06
7.75168e-08
2.59489e-06
6.78957e-08
2.53598e-06
5.89099e-08
2.48494e-06
5.10399e-08
2.44068e-06
4.42604e-08
2.40223e-06
3.84412e-08
2.36879e-06
3.34358e-08
2.33969e-06
2.90974e-08
2.31439e-06
2.53035e-08
2.29258e-06
2.18125e-08
2.27377e-06
1.8804e-08
2.25779e-06
1.59746e-08
1.26314e-08
2.24516e-06
3.46865e-06
2.18855e-08
3.48677e-06
8.40255e-08
3.49345e-06
8.87926e-08
3.49231e-06
9.2304e-08
3.48432e-06
9.3994e-08
3.47071e-06
9.11263e-08
3.45278e-06
8.58235e-08
3.43174e-06
7.99479e-08
3.40869e-06
7.40833e-08
3.38456e-06
6.83882e-08
3.36005e-06
6.29524e-08
3.33566e-06
5.78248e-08
3.31176e-06
5.29885e-08
3.28864e-06
4.84306e-08
3.26646e-06
4.39816e-08
3.24548e-06
3.97868e-08
3.22643e-06
3.50259e-08
2.87715e-08
3.21029e-06
3.66801e-06
1.63918e-08
3.68031e-06
7.1725e-08
3.69e-06
7.90967e-08
3.70002e-06
8.2283e-08
3.70913e-06
8.48839e-08
3.71622e-06
8.40336e-08
3.72118e-06
8.08583e-08
3.72423e-06
7.69023e-08
3.72559e-06
7.27216e-08
3.72552e-06
6.84586e-08
3.72427e-06
6.42019e-08
3.72207e-06
6.00208e-08
3.71913e-06
5.59288e-08
3.71564e-06
5.19146e-08
3.71175e-06
4.78704e-08
3.7078e-06
4.37342e-08
3.70382e-06
3.90091e-08
3.31311e-08
3.69946e-06
3.92495e-06
1.6827e-08
3.93556e-06
6.11145e-08
3.94312e-06
7.15379e-08
3.95014e-06
7.52586e-08
3.95682e-06
7.82006e-08
3.96261e-06
7.824e-08
3.96757e-06
7.58952e-08
3.9719e-06
7.25733e-08
3.97569e-06
6.89317e-08
3.97899e-06
6.51521e-08
3.98187e-06
6.13219e-08
3.98438e-06
5.75079e-08
3.98659e-06
5.37271e-08
3.98854e-06
4.99604e-08
3.99029e-06
4.61165e-08
3.99193e-06
4.20894e-08
3.99332e-06
3.76241e-08
3.24225e-08
3.99403e-06
4.20772e-06
1.62304e-08
4.21609e-06
5.2749e-08
4.22226e-06
6.5367e-08
4.22774e-06
6.97736e-08
4.23318e-06
7.27567e-08
4.23821e-06
7.32111e-08
4.24274e-06
7.13674e-08
4.24686e-06
6.84489e-08
4.25065e-06
6.51394e-08
4.25416e-06
6.16469e-08
4.25742e-06
5.80614e-08
4.26047e-06
5.44492e-08
4.26337e-06
5.08328e-08
4.26613e-06
4.71937e-08
4.26879e-06
4.34604e-08
4.27133e-06
3.95437e-08
4.27365e-06
3.53038e-08
3.06097e-08
4.27546e-06
4.51042e-06
1.48945e-08
4.51713e-06
4.60444e-08
4.52283e-06
5.9659e-08
4.52796e-06
6.46402e-08
4.5331e-06
6.76188e-08
4.53796e-06
6.8352e-08
4.54239e-06
6.6938e-08
4.54644e-06
6.43954e-08
4.55019e-06
6.13861e-08
4.5537e-06
5.81401e-08
4.557e-06
5.47577e-08
4.56014e-06
5.13089e-08
4.56314e-06
4.78242e-08
4.56604e-06
4.42925e-08
4.56884e-06
4.06652e-08
4.5715e-06
3.68801e-08
4.57394e-06
3.28674e-08
2.85962e-08
4.57595e-06
4.83415e-06
1.34664e-08
4.83991e-06
4.02837e-08
4.84554e-06
5.40226e-08
4.85066e-06
5.9522e-08
4.85572e-06
6.25577e-08
4.86055e-06
6.35226e-08
4.86499e-06
6.24918e-08
4.86909e-06
6.03021e-08
4.87289e-06
5.75772e-08
4.87647e-06
5.45645e-08
4.87985e-06
5.13765e-08
4.88307e-06
4.80879e-08
4.88615e-06
4.47379e-08
4.88912e-06
4.13259e-08
4.89196e-06
3.78263e-08
4.89463e-06
3.4204e-08
4.89706e-06
3.04379e-08
2.65534e-08
4.8991e-06
5.18096e-06
1.20906e-08
5.18605e-06
3.51841e-08
5.19158e-06
4.8494e-08
5.19671e-06
5.43885e-08
5.20177e-06
5.7499e-08
5.20665e-06
5.8644e-08
5.21119e-06
5.79465e-08
5.21541e-06
5.60865e-08
5.21935e-06
5.36372e-08
5.22305e-06
5.0857e-08
5.22656e-06
4.78686e-08
5.22989e-06
4.47512e-08
5.23308e-06
4.15525e-08
5.23612e-06
3.82842e-08
5.239e-06
3.4941e-08
5.2417e-06
3.15121e-08
5.24413e-06
2.80065e-08
2.44728e-08
5.24621e-06
5.55268e-06
1.07519e-08
5.55721e-06
3.06535e-08
5.56252e-06
4.31783e-08
5.56764e-06
4.92686e-08
5.57271e-06
5.24237e-08
5.57767e-06
5.369e-08
5.58234e-06
5.32721e-08
5.58671e-06
5.17155e-08
5.59081e-06
4.95329e-08
5.59468e-06
4.69863e-08
5.59834e-06
4.42055e-08
5.60182e-06
4.12742e-08
5.60512e-06
3.82472e-08
5.60826e-06
3.51488e-08
5.61121e-06
3.19899e-08
5.61394e-06
2.87794e-08
5.6164e-06
2.55425e-08
2.23373e-08
5.61854e-06
5.95107e-06
9.45627e-09
5.95511e-06
2.66117e-08
5.96017e-06
3.81236e-08
5.96524e-06
4.41937e-08
5.97032e-06
4.73436e-08
5.97533e-06
4.86766e-08
5.98012e-06
4.848e-08
5.98464e-06
4.71931e-08
5.98891e-06
4.52622e-08
5.99295e-06
4.29455e-08
5.99678e-06
4.0378e-08
6.0004e-06
3.76462e-08
6.00384e-06
3.48104e-08
6.00708e-06
3.19056e-08
6.01012e-06
2.89553e-08
6.01291e-06
2.5982e-08
6.01544e-06
2.30186e-08
2.01247e-08
6.01765e-06
6.37804e-06
8.22433e-09
6.38168e-06
2.29776e-08
6.38646e-06
3.33413e-08
6.39146e-06
3.91922e-08
6.39652e-06
4.22782e-08
6.40157e-06
4.36298e-08
6.40645e-06
4.35957e-08
6.4111e-06
4.25389e-08
6.41552e-06
4.08401e-08
6.41972e-06
3.87461e-08
6.42371e-06
3.63936e-08
6.42748e-06
3.38712e-08
6.43105e-06
3.12425e-08
6.4344e-06
2.85505e-08
6.43753e-06
2.58274e-08
6.44041e-06
2.3104e-08
6.44301e-06
2.04153e-08
1.78185e-08
6.44531e-06
5.74182e-06
7.23472e-09
5.74462e-06
2.01755e-08
5.74846e-06
2.95087e-08
5.75261e-06
3.5036e-08
5.75687e-06
3.80183e-08
5.76114e-06
3.9354e-08
5.76532e-06
3.94137e-08
5.76934e-06
3.85192e-08
5.77318e-06
3.70006e-08
5.77684e-06
3.5088e-08
5.78031e-06
3.29172e-08
5.78361e-06
3.05769e-08
5.78672e-06
2.81328e-08
5.78963e-06
2.56317e-08
5.79235e-06
2.31108e-08
5.79485e-06
2.06042e-08
5.79712e-06
1.81465e-08
1.5792e-08
5.79914e-06
6.99922e-06
6.17319e-09
7.00219e-06
1.71991e-08
7.00635e-06
2.5348e-08
7.01099e-06
3.03917e-08
7.01583e-06
3.31801e-08
7.02073e-06
3.44521e-08
7.02557e-06
3.45763e-08
7.03025e-06
3.38333e-08
7.03475e-06
3.25008e-08
7.03905e-06
3.0787e-08
7.04314e-06
2.88228e-08
7.04702e-06
2.66958e-08
7.05069e-06
2.44712e-08
7.05412e-06
2.21985e-08
7.05731e-06
1.99171e-08
7.06025e-06
1.76627e-08
7.06293e-06
1.54667e-08
1.33801e-08
7.06534e-06
8.53197e-06
5.04889e-09
8.53509e-06
1.40757e-08
8.53955e-06
2.08895e-08
8.54467e-06
2.52697e-08
8.5501e-06
2.77476e-08
8.55566e-06
2.88895e-08
8.56121e-06
2.90328e-08
8.56662e-06
2.84182e-08
8.57185e-06
2.72706e-08
8.57686e-06
2.57699e-08
8.58165e-06
2.40372e-08
8.58619e-06
2.21559e-08
8.59047e-06
2.01885e-08
8.59448e-06
1.81839e-08
8.59822e-06
1.61811e-08
8.60167e-06
1.42146e-08
8.60482e-06
1.23118e-08
1.05175e-08
8.60768e-06
1.04004e-05
3.87307e-09
1.04036e-05
1.08271e-08
1.04084e-05
1.61583e-08
1.0414e-05
1.96841e-08
1.042e-05
2.17108e-08
1.04262e-05
2.2635e-08
1.04325e-05
2.27365e-08
1.04387e-05
2.22129e-08
1.04448e-05
2.12393e-08
1.04506e-05
1.99605e-08
1.04561e-05
1.84822e-08
1.04614e-05
1.68785e-08
1.04664e-05
1.52064e-08
1.04711e-05
1.35099e-08
1.04754e-05
1.18252e-08
1.04795e-05
1.01822e-08
1.04832e-05
8.60376e-09
7.12742e-09
1.04866e-05
1.2678e-05
2.65341e-09
1.26814e-05
7.45118e-09
1.26864e-05
1.11565e-08
1.26924e-05
1.36359e-08
1.26991e-05
1.505e-08
1.27061e-05
1.56476e-08
1.27132e-05
1.5631e-08
1.27202e-05
1.51489e-08
1.27272e-05
1.43269e-08
1.27338e-05
1.32722e-08
1.27403e-05
1.20664e-08
1.27464e-05
1.07701e-08
1.27521e-05
9.42905e-09
1.27576e-05
8.07979e-09
1.27626e-05
6.75111e-09
1.27674e-05
5.46731e-09
1.27717e-05
4.24429e-09
3.11333e-09
1.27757e-05
1.54545e-05
1.38152e-09
1.5458e-05
3.90498e-09
1.54633e-05
5.82931e-09
1.54699e-05
7.06923e-09
1.54772e-05
7.69704e-09
1.5485e-05
7.84153e-09
1.54931e-05
7.61918e-09
1.55011e-05
7.12006e-09
1.5509e-05
6.4202e-09
1.55167e-05
5.58495e-09
1.55241e-05
4.66639e-09
1.55311e-05
3.70401e-09
1.55378e-05
2.72828e-09
1.55442e-05
1.76339e-09
1.55501e-05
8.28559e-10
1.55556e-05
-6.05843e-11
1.55607e-05
-8.94703e-10
-1.6505e-09
1.55655e-05
1.8839e-05
1.83294e-11
1.88428e-05
6.43665e-11
1.88487e-05
2.35563e-13
1.88559e-05
-2.11739e-10
1.88642e-05
-5.53161e-10
1.8873e-05
-9.95099e-10
1.88822e-05
-1.51336e-09
1.88914e-05
-2.08578e-09
1.89005e-05
-2.69011e-09
1.89094e-05
-3.30674e-09
1.89179e-05
-3.9202e-09
1.89262e-05
-4.51824e-09
1.8934e-05
-5.09079e-09
1.89414e-05
-5.62958e-09
1.89483e-05
-6.128e-09
1.89549e-05
-6.58052e-09
1.89609e-05
-6.98532e-09
-7.32733e-09
1.89666e-05
2.29649e-05
-1.53716e-09
2.29693e-05
-4.36454e-09
2.29761e-05
-6.76566e-09
2.29846e-05
-8.71065e-09
2.29942e-05
-1.02163e-08
2.30046e-05
-1.13687e-08
2.30154e-05
-1.22576e-08
2.30262e-05
-1.29372e-08
2.3037e-05
-1.34445e-08
2.30475e-05
-1.38145e-08
2.30576e-05
-1.40781e-08
2.30674e-05
-1.42571e-08
2.30766e-05
-1.4367e-08
2.30854e-05
-1.44185e-08
2.30937e-05
-1.44204e-08
2.31015e-05
-1.43786e-08
2.31088e-05
-1.42996e-08
-1.41766e-08
2.31157e-05
1.68119e-05
-2.74019e-09
1.68153e-05
-7.77003e-09
1.68205e-05
-1.19838e-08
1.6827e-05
-1.52273e-08
1.68344e-05
-1.75437e-08
1.68422e-05
-1.9167e-08
1.68502e-05
-2.02904e-08
1.68583e-05
-2.10146e-08
1.68662e-05
-2.14164e-08
1.6874e-05
-2.15766e-08
1.68815e-05
-2.15601e-08
1.68886e-05
-2.14141e-08
1.68954e-05
-2.1171e-08
1.69019e-05
-2.08571e-08
1.69079e-05
-2.04906e-08
1.69137e-05
-2.00858e-08
1.6919e-05
-1.96529e-08
-1.91915e-08
1.6924e-05
1.46357e-05
-3.87389e-09
1.4639e-05
-1.10339e-08
1.4644e-05
-1.70269e-08
1.46502e-05
-2.14284e-08
1.4657e-05
-2.43826e-08
1.46642e-05
-2.63626e-08
1.46716e-05
-2.76441e-08
1.46789e-05
-2.83459e-08
1.46861e-05
-2.85955e-08
1.4693e-05
-2.85236e-08
1.46997e-05
-2.82261e-08
1.47061e-05
-2.77663e-08
1.47121e-05
-2.71923e-08
1.47178e-05
-2.65413e-08
1.47231e-05
-2.58414e-08
1.47281e-05
-2.51115e-08
1.47328e-05
-2.43669e-08
-2.36098e-08
1.47373e-05
1.27412e-05
-4.89864e-09
1.27444e-05
-1.42787e-08
1.27495e-05
-2.2147e-08
1.27556e-05
-2.74794e-08
1.2762e-05
-3.08498e-08
1.27688e-05
-3.31043e-08
1.27756e-05
-3.4488e-08
1.27824e-05
-3.51011e-08
1.27889e-05
-3.51449e-08
1.27952e-05
-3.48107e-08
1.28012e-05
-3.42176e-08
1.28069e-05
-3.34423e-08
1.28122e-05
-3.25458e-08
1.28173e-05
-3.15754e-08
1.2822e-05
-3.05652e-08
1.28264e-05
-2.95372e-08
1.28305e-05
-2.85072e-08
-2.74781e-08
1.28344e-05
1.10917e-05
-5.6808e-09
1.1095e-05
-1.75477e-08
1.11004e-05
-2.75516e-08
1.11064e-05
-3.34691e-08
1.11125e-05
-3.70036e-08
1.11189e-05
-3.94462e-08
1.11252e-05
-4.08558e-08
1.11314e-05
-4.13173e-08
1.11374e-05
-4.11272e-08
1.11431e-05
-4.0522e-08
1.11485e-05
-3.96306e-08
1.11536e-05
-3.85426e-08
1.11584e-05
-3.73324e-08
1.11629e-05
-3.60581e-08
1.11671e-05
-3.47577e-08
1.1171e-05
-3.34576e-08
1.11747e-05
-3.21756e-08
-3.09202e-08
1.11781e-05
9.65564e-06
-6.10662e-09
9.65904e-06
-2.09534e-08
9.66464e-06
-3.3152e-08
9.67044e-06
-3.92669e-08
9.67636e-06
-4.29231e-08
9.68242e-06
-4.55063e-08
9.68837e-06
-4.68053e-08
9.69407e-06
-4.702e-08
9.6995e-06
-4.65645e-08
9.70467e-06
-4.56862e-08
9.70954e-06
-4.45055e-08
9.71412e-06
-4.31204e-08
9.7184e-06
-4.16177e-08
9.7224e-06
-4.00628e-08
9.72614e-06
-3.84978e-08
9.72963e-06
-3.69493e-08
9.73289e-06
-3.54301e-08
-3.39344e-08
9.7359e-06
8.40494e-06
-5.69846e-09
8.40932e-06
-2.53336e-08
8.41475e-06
-3.85757e-08
8.41986e-06
-4.43822e-08
8.42543e-06
-4.85002e-08
8.4313e-06
-5.13753e-08
8.43703e-06
-5.25299e-08
8.44246e-06
-5.24539e-08
8.4476e-06
-5.1702e-08
8.45243e-06
-5.05234e-08
8.45696e-06
-4.90345e-08
8.46118e-06
-4.73444e-08
8.46511e-06
-4.55496e-08
8.46877e-06
-4.3721e-08
8.47217e-06
-4.19031e-08
8.47535e-06
-4.01248e-08
8.47833e-06
-3.84105e-08
-3.67698e-08
8.48116e-06
7.31365e-06
-2.06098e-09
7.32071e-06
-3.23969e-08
7.32651e-06
-4.43822e-08
7.33133e-06
-4.91953e-08
7.33671e-06
-5.38847e-08
7.34237e-06
-5.7042e-08
7.34791e-06
-5.80694e-08
7.35323e-06
-5.77691e-08
7.35829e-06
-5.67678e-08
7.36307e-06
-5.5298e-08
7.36752e-06
-5.34932e-08
7.37166e-06
-5.14842e-08
7.37549e-06
-4.93833e-08
7.37904e-06
-4.72664e-08
7.38232e-06
-4.51834e-08
7.38536e-06
-4.31639e-08
7.38816e-06
-4.12188e-08
-3.92968e-08
7.39069e-06
6.36047e-06
7.53614e-09
6.3703e-06
-4.22275e-08
6.37819e-06
-5.22704e-08
6.38525e-06
-5.62632e-08
6.39238e-06
-6.10107e-08
6.39899e-06
-6.36605e-08
6.40499e-06
-6.40627e-08
6.41054e-06
-6.33216e-08
6.41574e-06
-6.19723e-08
6.42059e-06
-6.01497e-08
6.42508e-06
-5.798e-08
6.4292e-06
-5.56041e-08
6.43296e-06
-5.31509e-08
6.43639e-06
-5.06967e-08
6.43951e-06
-4.82998e-08
6.44234e-06
-4.60013e-08
6.44496e-06
-4.38323e-08
-4.18207e-08
6.44748e-06
5.53917e-06
1.38302e-08
5.54752e-06
-5.05802e-08
5.55587e-06
-6.06167e-08
5.56612e-06
-6.65203e-08
5.57732e-06
-7.22147e-08
5.58782e-06
-7.416e-08
5.59704e-06
-7.32835e-08
5.605e-06
-7.12835e-08
5.61177e-06
-6.87453e-08
5.61743e-06
-6.58094e-08
5.62205e-06
-6.25991e-08
5.62571e-06
-5.92696e-08
5.62852e-06
-5.59561e-08
5.63055e-06
-5.27331e-08
5.63191e-06
-4.96523e-08
5.63269e-06
-4.67827e-08
5.63299e-06
-4.41348e-08
-4.18006e-08
5.63297e-06
4.87157e-06
-3.01351e-08
4.88648e-06
-6.54867e-08
4.89722e-06
-7.13602e-08
4.90599e-06
-7.52989e-08
4.91304e-06
-7.9263e-08
4.91732e-06
-7.84427e-08
4.91816e-06
-7.41189e-08
4.91542e-06
-6.85532e-08
4.90944e-06
-6.27622e-08
4.90072e-06
-5.70875e-08
4.88982e-06
-5.16995e-08
4.87724e-06
-4.66973e-08
4.86345e-06
-4.21628e-08
4.8488e-06
-3.80883e-08
4.83361e-06
-3.44597e-08
4.81813e-06
-3.13005e-08
4.80262e-06
-2.86261e-08
-2.69316e-08
4.78774e-06
4.17254e-06
4.10705e-06
4.03569e-06
3.96039e-06
3.88113e-06
3.80269e-06
3.72857e-06
3.66002e-06
3.59725e-06
3.54017e-06
3.48847e-06
3.44177e-06
3.39961e-06
3.36152e-06
3.32706e-06
3.29576e-06
3.26713e-06
3.2402e-06
1.23788e-08
-1.24133e-08
2.97881e-08
-1.74626e-08
4.57926e-08
-1.60473e-08
5.80251e-08
-1.22754e-08
6.5573e-08
-7.58491e-09
6.83003e-08
-2.76828e-09
6.65848e-08
1.68e-09
6.1127e-08
5.41557e-09
5.27898e-08
8.30012e-09
4.23234e-08
1.04207e-08
3.03235e-08
1.196e-08
1.71669e-08
1.31063e-08
3.13431e-09
1.39903e-08
-1.17553e-08
1.48392e-08
-2.75921e-08
1.57991e-08
-4.44547e-08
1.68179e-08
-6.2419e-08
1.79325e-08
-8.16229e-08
1.91631e-08
-1.02158e-07
2.0506e-08
-1.24144e-07
2.19457e-08
-1.47631e-07
2.34601e-08
-1.72696e-07
2.50235e-08
-1.99334e-07
2.66087e-08
-2.27565e-07
2.81875e-08
-2.57328e-07
2.97337e-08
-2.88596e-07
3.12235e-08
-3.21262e-07
3.26383e-08
-3.55266e-07
3.39622e-08
-3.90474e-07
3.51823e-08
-4.268e-07
3.62865e-08
-4.64089e-07
3.72684e-08
-5.02248e-07
3.81252e-08
-5.41126e-07
3.8861e-08
-5.80634e-07
3.94793e-08
-6.20632e-07
3.99866e-08
-6.61045e-07
4.03885e-08
-7.01747e-07
4.06939e-08
-7.42681e-07
4.0911e-08
-7.83743e-07
4.10534e-08
-8.249e-07
4.11353e-08
-8.66087e-07
4.11792e-08
-9.07317e-07
4.12088e-08
-9.48566e-07
4.12424e-08
-9.89861e-07
4.1277e-08
-1.03118e-06
4.13093e-08
-1.07253e-06
4.13364e-08
-1.11389e-06
4.13587e-08
-1.15528e-06
4.1374e-08
-1.19667e-06
4.13828e-08
-1.23807e-06
4.13829e-08
-1.27945e-06
4.13748e-08
-1.32083e-06
4.13558e-08
-1.36217e-06
4.13262e-08
-1.40347e-06
4.12831e-08
-1.44471e-06
4.12266e-08
-1.48589e-06
4.11527e-08
-1.52696e-06
4.10616e-08
-1.56794e-06
4.09492e-08
-1.60876e-06
4.08157e-08
-1.64944e-06
4.06564e-08
-1.68992e-06
4.04718e-08
-1.7302e-06
4.02576e-08
-1.77022e-06
4.00141e-08
-1.80997e-06
3.97365e-08
-1.8494e-06
3.94254e-08
-1.88849e-06
3.90762e-08
-1.92718e-06
3.86899e-08
-1.96546e-06
3.82621e-08
-2.00325e-06
3.77942e-08
-2.04054e-06
3.72816e-08
-2.07727e-06
3.6726e-08
-2.1134e-06
3.61231e-08
-2.14887e-06
3.54744e-08
-2.18366e-06
3.47757e-08
-2.21769e-06
3.40292e-08
-2.25093e-06
3.32306e-08
-2.28332e-06
3.23827e-08
-2.31481e-06
3.14822e-08
-2.34534e-06
3.05316e-08
-2.37488e-06
2.95267e-08
-2.40334e-06
2.84701e-08
-2.43071e-06
2.73582e-08
-2.45689e-06
2.61937e-08
-2.48187e-06
2.49721e-08
-2.50556e-06
2.36967e-08
-2.52792e-06
2.23638e-08
-2.54888e-06
2.09761e-08
-2.56839e-06
1.9529e-08
-2.58639e-06
1.80222e-08
-2.6028e-06
1.64514e-08
-2.61759e-06
1.48103e-08
-2.63066e-06
1.30933e-08
-2.64194e-06
1.12935e-08
-2.65134e-06
9.40117e-09
-2.65873e-06
7.40049e-09
-2.664e-06
5.2745e-09
-2.66702e-06
3.02345e-09
-2.66773e-06
7.1416e-10
-2.66629e-06
-1.43794e-09
-2.6629e-06
-3.39114e-09
-2.65761e-06
-5.29137e-09
-2.65043e-06
-7.18422e-09
-2.64135e-06
-9.08806e-09
-2.63035e-06
-1.10063e-08
-2.61741e-06
-1.29362e-08
-2.60254e-06
-1.48759e-08
-2.58571e-06
-1.68201e-08
-2.56693e-06
-1.87659e-08
-2.54621e-06
-2.07078e-08
-2.52355e-06
-2.2642e-08
-2.49896e-06
-2.45631e-08
-2.47247e-06
-2.64662e-08
-2.4441e-06
-2.83457e-08
-2.41387e-06
-3.01958e-08
-2.38182e-06
-3.20114e-08
-2.348e-06
-3.37861e-08
-2.31245e-06
-3.55153e-08
-2.27522e-06
-3.71919e-08
-2.23638e-06
-3.8811e-08
-2.19597e-06
-4.03649e-08
-2.15408e-06
-4.18493e-08
-2.11078e-06
-4.32567e-08
-2.06614e-06
-4.45863e-08
-2.02026e-06
-4.58314e-08
-1.97323e-06
-4.69956e-08
-1.92512e-06
-4.80776e-08
-1.87602e-06
-4.90837e-08
-1.82603e-06
-4.99875e-08
-1.77525e-06
-5.07891e-08
-1.72378e-06
-5.14953e-08
-1.67172e-06
-5.21084e-08
-1.61916e-06
-5.26174e-08
-1.56621e-06
-5.30245e-08
-1.51297e-06
-5.33254e-08
-1.45954e-06
-5.35212e-08
-1.40603e-06
-5.36112e-08
-1.35253e-06
-5.35953e-08
-1.29915e-06
-5.34754e-08
-1.24596e-06
-5.32512e-08
-1.19308e-06
-5.29329e-08
-1.14058e-06
-5.25264e-08
-1.08854e-06
-5.20433e-08
-1.03705e-06
-5.14878e-08
-9.86157e-07
-5.08681e-08
-9.35933e-07
-5.01863e-08
-8.86426e-07
-4.9454e-08
-8.37682e-07
-4.86744e-08
-7.89734e-07
-4.78601e-08
-7.42613e-07
-4.70156e-08
-6.9633e-07
-4.61565e-08
-6.50896e-07
-4.5287e-08
-6.06303e-07
-4.44228e-08
-5.62541e-07
-4.35699e-08
-5.19579e-07
-4.27469e-08
-4.77383e-07
-4.19589e-08
-4.35901e-07
-4.12228e-08
-3.95077e-07
-4.05468e-08
-3.54828e-07
-3.99497e-08
-3.1508e-07
-3.94344e-08
-2.75726e-07
-3.90208e-08
-2.36664e-07
-3.87195e-08
-1.97767e-07
-3.85371e-08
-1.58919e-07
-3.84813e-08
-1.19927e-07
-3.86119e-08
-8.06707e-08
-3.88749e-08
-4.10968e-08
-3.91822e-08
-1.27496e-09
-3.94353e-08
3.85904e-08
-3.94733e-08
7.8505e-08
-3.95404e-08
1.18991e-07
-4.01165e-08
1.60587e-07
-4.12512e-08
2.03718e-07
-4.27919e-08
2.48649e-07
-4.46183e-08
2.95545e-07
-4.65932e-08
3.44376e-07
-4.85582e-08
3.94844e-07
-5.0211e-08
4.46083e-07
-5.10168e-08
4.9561e-07
-4.93223e-08
5.3828e-07
-4.24982e-08
-5.89331e-10
5.39028e-07
1.40681e-08
-2.65135e-08
2.30796e-08
-2.65144e-08
2.65371e-08
-1.95303e-08
2.59187e-08
-1.16793e-08
2.22217e-08
-3.90646e-09
1.5977e-08
3.45715e-09
7.45987e-09
1.018e-08
-3.24907e-09
1.61055e-08
-1.61338e-08
2.11678e-08
-3.11417e-08
2.54099e-08
-4.81616e-08
2.89634e-08
-6.70771e-08
3.20037e-08
-8.78102e-08
3.47077e-08
-1.10225e-07
3.72367e-08
-1.34157e-07
3.97168e-08
-1.59582e-07
4.22269e-08
-1.86475e-07
4.48122e-08
-2.14813e-07
4.74862e-08
-2.44555e-07
5.02361e-08
-2.75658e-07
5.30331e-08
-3.0805e-07
5.58389e-08
-3.41654e-07
5.86117e-08
-3.76369e-07
6.131e-08
-4.12094e-07
6.3895e-08
-4.48708e-07
6.63325e-08
-4.86097e-07
6.85946e-08
-5.24134e-07
7.06607e-08
-5.62709e-07
7.25184e-08
-6.01702e-07
7.41617e-08
-6.41021e-07
7.55879e-08
-6.80564e-07
7.67981e-08
-7.20255e-07
7.78005e-08
-7.60014e-07
7.86093e-08
-7.9979e-07
7.92417e-08
-8.39529e-07
7.97162e-08
-8.79204e-07
8.00519e-08
-9.18787e-07
8.02687e-08
-9.58273e-07
8.03862e-08
-9.97652e-07
8.04245e-08
-1.03693e-06
8.04044e-08
-1.07611e-06
8.03467e-08
-1.11518e-06
8.02683e-08
-1.15412e-06
8.01792e-08
-1.19293e-06
8.00816e-08
-1.23161e-06
7.99756e-08
-1.27014e-06
7.98611e-08
-1.30852e-06
7.97375e-08
-1.34676e-06
7.96032e-08
-1.38484e-06
7.94568e-08
-1.42276e-06
7.92957e-08
-1.46051e-06
7.91176e-08
-1.49808e-06
7.89197e-08
-1.53546e-06
7.86992e-08
-1.57264e-06
7.84526e-08
-1.6096e-06
7.81767e-08
-1.64633e-06
7.78676e-08
-1.6828e-06
7.7522e-08
-1.719e-06
7.71356e-08
-1.7549e-06
7.6705e-08
-1.79048e-06
7.62259e-08
-1.82571e-06
7.56953e-08
-1.86057e-06
7.51089e-08
-1.89503e-06
7.44638e-08
-1.92905e-06
7.37557e-08
-1.96262e-06
7.29818e-08
-1.99569e-06
7.21384e-08
-2.02822e-06
7.12232e-08
-2.0602e-06
7.02326e-08
-2.09157e-06
6.91649e-08
-2.12231e-06
6.80168e-08
-2.15238e-06
6.67868e-08
-2.18173e-06
6.54717e-08
-2.21032e-06
6.40705e-08
-2.23813e-06
6.25802e-08
-2.26511e-06
6.10002e-08
-2.29121e-06
5.93282e-08
-2.31639e-06
5.75642e-08
-2.34062e-06
5.57064e-08
-2.36385e-06
5.37547e-08
-2.38603e-06
5.17068e-08
-2.40712e-06
4.95633e-08
-2.42709e-06
4.73221e-08
-2.44588e-06
4.49837e-08
-2.46345e-06
4.25463e-08
-2.47976e-06
4.00107e-08
-2.49477e-06
3.73756e-08
-2.50843e-06
3.4642e-08
-2.52069e-06
3.18077e-08
-2.53153e-06
2.88729e-08
-2.54089e-06
2.58346e-08
-2.54875e-06
2.26911e-08
-2.55509e-06
1.94413e-08
-2.55988e-06
1.6086e-08
-2.5631e-06
1.26288e-08
-2.56477e-06
9.07939e-09
-2.56496e-06
5.46215e-09
-2.56375e-06
1.81917e-09
-2.56123e-06
-1.80521e-09
-2.55725e-06
-5.42316e-09
-2.55157e-06
-9.07412e-09
-2.5441e-06
-1.27637e-08
-2.5348e-06
-1.64885e-08
-2.52364e-06
-2.02482e-08
-2.51062e-06
-2.40389e-08
-2.4957e-06
-2.7854e-08
-2.47889e-06
-3.16866e-08
-2.46018e-06
-3.55283e-08
-2.43957e-06
-3.93709e-08
-2.41706e-06
-4.32048e-08
-2.39267e-06
-4.70212e-08
-2.3664e-06
-5.08096e-08
-2.33829e-06
-5.45599e-08
-2.30836e-06
-5.8261e-08
-2.27663e-06
-6.1902e-08
-2.24315e-06
-6.54714e-08
-2.20796e-06
-6.8958e-08
-2.1711e-06
-7.23502e-08
-2.13263e-06
-7.56366e-08
-2.09262e-06
-7.88051e-08
-2.05112e-06
-8.18434e-08
-2.0082e-06
-8.47402e-08
-1.96394e-06
-8.74848e-08
-1.91843e-06
-9.00696e-08
-1.87174e-06
-9.24865e-08
-1.82398e-06
-9.47328e-08
-1.77523e-06
-9.68096e-08
-1.72558e-06
-9.87226e-08
-1.67512e-06
-1.00442e-07
-1.62396e-06
-1.01959e-07
-1.57219e-06
-1.03285e-07
-1.5199e-06
-1.04421e-07
-1.46719e-06
-1.05354e-07
-1.41418e-06
-1.06084e-07
-1.36094e-06
-1.06606e-07
-1.30759e-06
-1.06923e-07
-1.25423e-06
-1.07031e-07
-1.20094e-06
-1.06937e-07
-1.14782e-06
-1.0664e-07
-1.09496e-06
-1.06149e-07
-1.04244e-06
-1.05474e-07
-9.9034e-07
-1.04633e-07
-9.38745e-07
-1.03639e-07
-8.87719e-07
-1.02509e-07
-8.3732e-07
-1.01251e-07
-7.87603e-07
-9.98842e-08
-7.38607e-07
-9.84177e-08
-6.9037e-07
-9.68738e-08
-6.42917e-07
-9.52625e-08
-5.96267e-07
-9.36103e-08
-5.50422e-07
-9.19305e-08
-5.0538e-07
-9.02518e-08
-4.61124e-07
-8.85857e-08
-4.17629e-07
-8.69651e-08
-3.74852e-07
-8.54057e-08
-3.32748e-07
-8.39411e-08
-2.91246e-07
-8.2584e-08
-2.50275e-07
-8.13741e-08
-2.09737e-07
-8.0327e-08
-1.69533e-07
-7.94766e-08
-1.29536e-07
-7.88401e-08
-8.96147e-08
-7.8464e-08
-4.96165e-08
-7.83447e-08
-9.40817e-09
-7.85019e-08
3.11012e-08
-7.89226e-08
7.20264e-08
-7.96076e-08
1.13643e-07
-8.05999e-08
1.5629e-07
-8.18921e-08
2.00377e-07
-8.33662e-08
2.46167e-07
-8.51451e-08
2.93732e-07
-8.74941e-08
3.43156e-07
-9.04975e-08
3.94591e-07
-9.40507e-08
4.48135e-07
-9.79962e-08
5.03798e-07
-1.02094e-07
5.61402e-07
-1.06013e-07
6.20516e-07
-1.09184e-07
6.80073e-07
-1.10448e-07
7.38544e-07
-1.0768e-07
7.90762e-07
-9.46173e-08
-4.99108e-08
8.4017e-07
5.29793e-09
-3.18368e-08
3.58512e-09
-2.483e-08
-1.97398e-09
-1.39884e-08
-1.00323e-08
-3.63529e-09
-1.99562e-08
6.00618e-09
-3.14545e-08
1.49441e-08
-4.44341e-08
2.31497e-08
-5.89223e-08
3.0583e-08
-7.49954e-08
3.72313e-08
-9.273e-08
4.3134e-08
-1.12161e-07
4.8385e-08
-1.33282e-07
5.31145e-08
-1.56047e-07
5.7463e-08
-1.8038e-07
6.15595e-08
-2.0618e-07
6.55083e-08
-2.33344e-07
6.9381e-08
-2.61755e-07
7.32162e-08
-2.91301e-07
7.70227e-08
-3.21859e-07
8.07866e-08
-3.53313e-07
8.44787e-08
-3.85544e-07
8.8062e-08
-4.18439e-07
9.14973e-08
-4.51884e-07
9.47476e-08
-4.8578e-07
9.77809e-08
-5.20028e-07
1.00572e-07
-5.54547e-07
1.03103e-07
-5.89258e-07
1.05363e-07
-6.24096e-07
1.07345e-07
-6.58995e-07
1.09052e-07
-6.93913e-07
1.10495e-07
-7.28815e-07
1.11692e-07
-7.63688e-07
1.12663e-07
-7.98514e-07
1.13428e-07
-8.33291e-07
1.14009e-07
-8.68012e-07
1.1443e-07
-9.02683e-07
1.14714e-07
-9.37302e-07
1.14882e-07
-9.7188e-07
1.14956e-07
-1.00642e-06
1.14955e-07
-1.04092e-06
1.14899e-07
-1.07538e-06
1.14802e-07
-1.1098e-06
1.14677e-07
-1.14415e-06
1.14532e-07
-1.17845e-06
1.14371e-07
-1.21267e-06
1.14195e-07
-1.24682e-06
1.14006e-07
-1.28089e-06
1.13801e-07
-1.31487e-06
1.13579e-07
-1.34875e-06
1.13338e-07
-1.38254e-06
1.13075e-07
-1.41621e-06
1.12784e-07
-1.44976e-06
1.12464e-07
-1.48317e-06
1.12108e-07
-1.51644e-06
1.11713e-07
-1.54954e-06
1.11273e-07
-1.58246e-06
1.10783e-07
-1.61518e-06
1.10239e-07
-1.64769e-06
1.09634e-07
-1.67996e-06
1.08963e-07
-1.71196e-06
1.08222e-07
-1.74368e-06
1.07405e-07
-1.77508e-06
1.06507e-07
-1.80615e-06
1.05523e-07
-1.83685e-06
1.04449e-07
-1.86715e-06
1.03279e-07
-1.89702e-06
1.02009e-07
-1.92644e-06
1.00635e-07
-1.95537e-06
9.91533e-08
-1.98376e-06
9.756e-08
-2.0116e-06
9.58515e-08
-2.03884e-06
9.40247e-08
-2.06545e-06
9.20763e-08
-2.09138e-06
9.00034e-08
-2.11661e-06
8.78035e-08
-2.14108e-06
8.54741e-08
-2.16477e-06
8.30133e-08
-2.18763e-06
8.04196e-08
-2.20961e-06
7.76913e-08
-2.23069e-06
7.4827e-08
-2.2508e-06
7.18253e-08
-2.26993e-06
6.86855e-08
-2.28801e-06
6.54064e-08
-2.30501e-06
6.19875e-08
-2.32089e-06
5.84282e-08
-2.33561e-06
5.47288e-08
-2.34912e-06
5.08893e-08
-2.36138e-06
4.69104e-08
-2.37236e-06
4.27925e-08
-2.38201e-06
3.85364e-08
-2.39031e-06
3.4143e-08
-2.39722e-06
2.96134e-08
-2.40273e-06
2.49511e-08
-2.4068e-06
2.01623e-08
-2.40943e-06
1.52568e-08
-2.4106e-06
1.025e-08
-2.4103e-06
5.16425e-09
-2.4085e-06
2.32896e-11
-2.40515e-06
-5.16373e-09
-2.40015e-06
-1.04191e-08
-2.39347e-06
-1.57611e-08
-2.38505e-06
-2.11819e-08
-2.37488e-06
-2.66705e-08
-2.36291e-06
-3.2218e-08
-2.34914e-06
-3.78136e-08
-2.33355e-06
-4.34469e-08
-2.31613e-06
-4.91054e-08
-2.29688e-06
-5.47771e-08
-2.27579e-06
-6.04487e-08
-2.25289e-06
-6.61067e-08
-2.22816e-06
-7.17366e-08
-2.20164e-06
-7.73234e-08
-2.17333e-06
-8.28515e-08
-2.14328e-06
-8.83046e-08
-2.1115e-06
-9.36663e-08
-2.07803e-06
-9.89195e-08
-2.04293e-06
-1.04047e-07
-2.00623e-06
-1.09032e-07
-1.96799e-06
-1.13858e-07
-1.92828e-06
-1.18506e-07
-1.88715e-06
-1.22959e-07
-1.84467e-06
-1.272e-07
-1.80092e-06
-1.31214e-07
-1.75598e-06
-1.34987e-07
-1.70993e-06
-1.38511e-07
-1.66287e-06
-1.41774e-07
-1.61489e-06
-1.44778e-07
-1.56608e-06
-1.47526e-07
-1.51652e-06
-1.49998e-07
-1.46632e-06
-1.52169e-07
-1.41556e-06
-1.54055e-07
-1.36434e-06
-1.55656e-07
-1.31275e-06
-1.56962e-07
-1.26089e-06
-1.57969e-07
-1.20886e-06
-1.58673e-07
-1.15674e-06
-1.59073e-07
-1.10464e-06
-1.59172e-07
-1.05264e-06
-1.58975e-07
-1.00082e-06
-1.58488e-07
-9.49264e-07
-1.57723e-07
-8.98056e-07
-1.56696e-07
-8.47268e-07
-1.55428e-07
-7.96969e-07
-1.53942e-07
-7.47218e-07
-1.52258e-07
-6.98069e-07
-1.50396e-07
-6.49564e-07
-1.48378e-07
-6.0174e-07
-1.46229e-07
-5.54623e-07
-1.43972e-07
-5.0823e-07
-1.41634e-07
-4.62569e-07
-1.39244e-07
-4.17638e-07
-1.36832e-07
-3.7342e-07
-1.34432e-07
-3.29895e-07
-1.32073e-07
-2.87023e-07
-1.29791e-07
-2.44759e-07
-1.27623e-07
-2.03039e-07
-1.25606e-07
-1.61793e-07
-1.23775e-07
-1.20932e-07
-1.22174e-07
-8.03567e-08
-1.20842e-07
-3.99499e-08
-1.19818e-07
4.06744e-10
-1.19133e-07
4.08364e-08
-1.18826e-07
8.14881e-08
-1.18931e-07
1.22556e-07
-1.19503e-07
1.6425e-07
-1.20553e-07
2.06799e-07
-1.22092e-07
2.50415e-07
-1.24155e-07
2.95334e-07
-1.2675e-07
3.41863e-07
-1.29836e-07
3.90259e-07
-1.33483e-07
4.40651e-07
-1.37831e-07
4.93125e-07
-1.42916e-07
5.47759e-07
-1.48632e-07
6.04587e-07
-1.54773e-07
6.63557e-07
-1.61016e-07
7.24466e-07
-1.66876e-07
7.86886e-07
-1.7156e-07
8.50039e-07
-1.73561e-07
9.12773e-07
-1.70379e-07
9.73629e-07
-1.55438e-07
-1.14586e-07
1.03834e-06
-4.59592e-09
-2.7262e-08
-1.43463e-08
-1.5101e-08
-2.6017e-08
-2.33025e-09
-3.89203e-08
9.25759e-09
-5.28316e-08
1.99091e-08
-6.76885e-08
2.97925e-08
-8.35127e-08
3.89664e-08
-1.0038e-07
4.74426e-08
-1.18389e-07
5.5232e-08
-1.37631e-07
6.23684e-08
-1.58168e-07
6.89148e-08
-1.80019e-07
7.49572e-08
-2.03154e-07
8.05914e-08
-2.27511e-07
8.59085e-08
-2.52992e-07
9.09831e-08
-2.79486e-07
9.58673e-08
-3.06865e-07
1.00589e-07
-3.35004e-07
1.05155e-07
-3.63778e-07
1.09555e-07
-3.93072e-07
1.13766e-07
-4.22778e-07
1.17762e-07
-4.52803e-07
1.21516e-07
-4.83063e-07
1.25002e-07
-5.13491e-07
1.28201e-07
-5.44025e-07
1.31101e-07
-5.74622e-07
1.33693e-07
-6.05243e-07
1.35978e-07
-6.35869e-07
1.37963e-07
-6.66485e-07
1.39661e-07
-6.97088e-07
1.4109e-07
-7.27674e-07
1.42272e-07
-7.5825e-07
1.43231e-07
-7.88817e-07
1.43989e-07
-8.19385e-07
1.4457e-07
-8.4996e-07
1.44999e-07
-8.80551e-07
1.45298e-07
-9.11162e-07
1.45488e-07
-9.41802e-07
1.45588e-07
-9.72468e-07
1.45616e-07
-1.00316e-06
1.45587e-07
-1.03388e-06
1.45514e-07
-1.06461e-06
1.45405e-07
-1.09535e-06
1.45268e-07
-1.1261e-06
1.45107e-07
-1.15683e-06
1.44924e-07
-1.18755e-06
1.4472e-07
-1.21824e-06
1.44494e-07
-1.24891e-06
1.44242e-07
-1.27953e-06
1.43961e-07
-1.31011e-06
1.43648e-07
-1.34063e-06
1.43297e-07
-1.37107e-06
1.42904e-07
-1.40143e-06
1.42462e-07
-1.43168e-06
1.41966e-07
-1.46183e-06
1.4141e-07
-1.49183e-06
1.40787e-07
-1.52169e-06
1.4009e-07
-1.55137e-06
1.39313e-07
-1.58086e-06
1.38449e-07
-1.61014e-06
1.37492e-07
-1.63918e-06
1.36435e-07
-1.66795e-06
1.35272e-07
-1.69642e-06
1.33997e-07
-1.72458e-06
1.32603e-07
-1.7524e-06
1.31085e-07
-1.77983e-06
1.29438e-07
-1.80685e-06
1.27655e-07
-1.83343e-06
1.25731e-07
-1.85954e-06
1.23663e-07
-1.88514e-06
1.21446e-07
-1.91019e-06
1.19074e-07
-1.93466e-06
1.16545e-07
-1.95851e-06
1.13854e-07
-1.9817e-06
1.10999e-07
-2.00421e-06
1.07975e-07
-2.02597e-06
1.04781e-07
-2.04697e-06
1.01414e-07
-2.06715e-06
9.78723e-08
-2.08648e-06
9.41538e-08
-2.10491e-06
9.02571e-08
-2.1224e-06
8.61811e-08
-2.13892e-06
8.19247e-08
-2.15442e-06
7.74874e-08
-2.16886e-06
7.28691e-08
-2.1822e-06
6.807e-08
-2.1944e-06
6.3091e-08
-2.20542e-06
5.79334e-08
-2.21522e-06
5.25988e-08
-2.22377e-06
4.70896e-08
-2.23102e-06
4.14081e-08
-2.23696e-06
3.55583e-08
-2.24155e-06
2.95455e-08
-2.24477e-06
2.33778e-08
-2.24658e-06
1.7066e-08
-2.24695e-06
1.06238e-08
-2.24586e-06
4.06678e-09
-2.24324e-06
-2.59305e-09
-2.23905e-06
-9.35437e-09
-2.23325e-06
-1.62275e-08
-2.2258e-06
-2.32163e-08
-2.21667e-06
-3.03117e-08
-2.20585e-06
-3.75002e-08
-2.1933e-06
-4.47685e-08
-2.17901e-06
-5.21013e-08
-2.16298e-06
-5.94839e-08
-2.14518e-06
-6.68996e-08
-2.12563e-06