/*--------------------------------*- C++ -*----------------------------------*\
| =========                 |                                                 |
| \\      /  F ield         | OpenFOAM: The Open Source CFD Toolbox           |
|  \\    /   O peration     | Version:  2212                                  |
|   \\  /    A nd           | Website:  www.openfoam.com                      |
|    \\/     M anipulation  |                                                 |
\*---------------------------------------------------------------------------*/
FoamFile
{
    version     2.0;
    format      ascii;
    arch        "LSB;label=32;scalar=64";
    class       volVectorField;
    location    "200";
    object      U;
}
// * * * * * * * * * * * * * * * * * * * * * * * * * * * * * * * * * * * * * //

dimensions      [0 1 -1 0 0 0 0];

internalField   nonuniform List<vector> 
12225
(
(9.84118 -0.956372 0)
(9.59253 -0.887946 0)
(9.31755 -0.594491 0)
(9.01471 -0.370011 0)
(8.72578 -0.225977 0)
(8.46714 -0.137868 0)
(8.24003 -0.0844852 0)
(8.04173 -0.0516292 0)
(7.86978 -0.0312313 0)
(7.72074 -0.0185978 0)
(7.59162 -0.0106562 0)
(7.47929 -0.00571889 0)
(7.3816 -0.00271702 0)
(7.29655 -0.00100767 0)
(7.22248 -0.000127589 0)
(7.16036 -0.000496902 0)
(7.1007 0.00256967 0)
(7.07267 -0.017708 0)
(10.0722 0.255857 0)
(10.1867 0.418355 0)
(10.2285 0.384144 0)
(10.2296 0.310408 0)
(10.2114 0.245686 0)
(10.1794 0.195439 0)
(10.1334 0.157682 0)
(10.0759 0.129674 0)
(10.0105 0.108825 0)
(9.94086 0.0930934 0)
(9.86925 0.080919 0)
(9.79746 0.071307 0)
(9.72652 0.063509 0)
(9.6576 0.0570522 0)
(9.59109 0.0512935 0)
(9.52794 0.0466814 0)
(9.46872 0.0401843 0)
(9.41541 0.0402597 0)
(10.0032 0.0599583 0)
(10.0309 0.0482998 0)
(10.0614 0.0100055 0)
(10.0897 5.46763e-06 0)
(10.1151 0.00817115 0)
(10.1376 0.0194281 0)
(10.1547 0.0290175 0)
(10.1657 0.0365023 0)
(10.1715 0.0420622 0)
(10.173 0.0459166 0)
(10.1711 0.0483792 0)
(10.1663 0.0497456 0)
(10.1591 0.0502521 0)
(10.1503 0.0500492 0)
(10.1401 0.0491708 0)
(10.1292 0.0476272 0)
(10.1183 0.0451303 0)
(10.1063 0.040336 0)
(9.99715 0.00991891 0)
(10.009 0.0260985 0)
(10.0342 0.0383084 0)
(10.0554 0.0533959 0)
(10.0721 0.064926 0)
(10.0875 0.0702659 0)
(10.1015 0.0714175 0)
(10.1134 0.070661 0)
(10.1236 0.0690813 0)
(10.1326 0.0671049 0)
(10.1404 0.0649316 0)
(10.1473 0.0626836 0)
(10.1532 0.0603815 0)
(10.1585 0.0580047 0)
(10.1632 0.0554163 0)
(10.1675 0.052477 0)
(10.1713 0.0487022 0)
(10.1743 0.042996 0)
(9.99907 0.00681102 0)
(10.0082 0.0343074 0)
(10.0279 0.0483584 0)
(10.0436 0.0549003 0)
(10.0558 0.0583666 0)
(10.0678 0.0595467 0)
(10.0793 0.0593144 0)
(10.0897 0.0585701 0)
(10.0991 0.0576744 0)
(10.1077 0.0566621 0)
(10.1157 0.0555249 0)
(10.1232 0.0542577 0)
(10.1303 0.052837 0)
(10.137 0.0512061 0)
(10.1434 0.0492462 0)
(10.1496 0.0468007 0)
(10.1554 0.0435468 0)
(10.1605 0.0391765 0)
(10.0002 0.00924494 0)
(10.0079 0.0334139 0)
(10.0236 0.0440803 0)
(10.0369 0.0484074 0)
(10.0478 0.0518671 0)
(10.0585 0.0542629 0)
(10.069 0.0552926 0)
(10.0785 0.0554535 0)
(10.0871 0.0551381 0)
(10.0951 0.0544773 0)
(10.1026 0.0535248 0)
(10.1098 0.0523233 0)
(10.1166 0.0508835 0)
(10.1231 0.0491761 0)
(10.1294 0.0471162 0)
(10.1355 0.0445853 0)
(10.1412 0.0414149 0)
(10.1462 0.0374838 0)
(10.0003 0.00912714 0)
(10.007 0.0287618 0)
(10.0201 0.0388987 0)
(10.0322 0.0440323 0)
(10.0425 0.0481331 0)
(10.0525 0.0509342 0)
(10.0622 0.0521768 0)
(10.0711 0.0524088 0)
(10.0793 0.0520938 0)
(10.0869 0.0514068 0)
(10.094 0.0504174 0)
(10.1009 0.0491709 0)
(10.1074 0.0476824 0)
(10.1136 0.0459262 0)
(10.1196 0.0438391 0)
(10.1254 0.041335 0)
(10.1307 0.0383253 0)
(10.1354 0.0347722 0)
(10.0004 0.00814607 0)
(10.006 0.0247145 0)
(10.0171 0.0348885 0)
(10.0283 0.0405341 0)
(10.0381 0.0446108 0)
(10.0475 0.0473228 0)
(10.0567 0.0485996 0)
(10.0652 0.0489126 0)
(10.073 0.0486746 0)
(10.0804 0.0480525 0)
(10.0873 0.0471144 0)
(10.0939 0.0459025 0)
(10.1002 0.0444351 0)
(10.1062 0.0426951 0)
(10.112 0.0406417 0)
(10.1174 0.0382219 0)
(10.1223 0.0353995 0)
(10.1268 0.0321927 0)
(10.0004 0.00721096 0)
(10.0052 0.0215212 0)
(10.0146 0.0312729 0)
(10.0248 0.0369522 0)
(10.0341 0.0408484 0)
(10.0429 0.0434748 0)
(10.0516 0.0448359 0)
(10.0598 0.0452742 0)
(10.0675 0.0451378 0)
(10.0746 0.0445923 0)
(10.0814 0.043711 0)
(10.0878 0.0425386 0)
(10.0939 0.0410997 0)
(10.0997 0.0393898 0)
(10.1052 0.0373895 0)
(10.1104 0.0350749 0)
(10.1151 0.0324436 0)
(10.1193 0.0295428 0)
(10.0004 0.00637226 0)
(10.0045 0.0187477 0)
(10.0125 0.0277507 0)
(10.0216 0.0332902 0)
(10.0303 0.0370358 0)
(10.0387 0.0395865 0)
(10.0469 0.0410005 0)
(10.0548 0.0415287 0)
(10.0622 0.0414676 0)
(10.0692 0.0409826 0)
(10.0758 0.0401517 0)
(10.0821 0.0390224 0)
(10.088 0.0376245 0)
(10.0936 0.0359658 0)
(10.0989 0.034044 0)
(10.1038 0.0318576 0)
(10.1083 0.0294234 0)
(10.1123 0.0268018 0)
(10.0004 0.00558266 0)
(10.0039 0.0162506 0)
(10.0107 0.0243882 0)
(10.0189 0.0296794 0)
(10.0269 0.0332543 0)
(10.0348 0.0356873 0)
(10.0426 0.0370921 0)
(10.0501 0.037665 0)
(10.0573 0.0376536 0)
(10.064 0.037216 0)
(10.0704 0.0364323 0)
(10.0765 0.0353516 0)
(10.0823 0.0340077 0)
(10.0877 0.0324185 0)
(10.0928 0.030595 0)
(10.0975 0.0285512 0)
(10.1018 0.026314 0)
(10.1057 0.0239477 0)
(10.0003 0.00487808 0)
(10.0034 0.0141502 0)
(10.0093 0.0214631 0)
(10.0167 0.0264317 0)
(10.0242 0.0298053 0)
(10.0316 0.0320935 0)
(10.039 0.0334467 0)
(10.0462 0.0340276 0)
(10.053 0.0340424 0)
(10.0595 0.033637 0)
(10.0658 0.0328919 0)
(10.0717 0.0318574 0)
(10.0772 0.0305703 0)
(10.0825 0.0290559 0)
(10.0874 0.0273342 0)
(10.092 0.0254278 0)
(10.0961 0.0233679 0)
(10.0999 0.0212182 0)
(10.0003 0.00421731 0)
(10.003 0.0122247 0)
(10.0082 0.0187006 0)
(10.0148 0.0232647 0)
(10.0217 0.0263979 0)
(10.0287 0.028518 0)
(10.0357 0.0297895 0)
(10.0425 0.0303527 0)
(10.0491 0.0303774 0)
(10.0554 0.0299949 0)
(10.0614 0.0292841 0)
(10.0671 0.0282963 0)
(10.0725 0.0270705 0)
(10.0775 0.0256368 0)
(10.0823 0.0240211 0)
(10.0867 0.0222516 0)
(10.0907 0.0203601 0)
(10.0944 0.0184093 0)
(10.0003 0.00352893 0)
(10.0026 0.0102176 0)
(10.0071 0.0157367 0)
(10.0129 0.019758 0)
(10.0193 0.0225564 0)
(10.0258 0.0244441 0)
(10.0323 0.0255811 0)
(10.0387 0.0260882 0)
(10.045 0.0261002 0)
(10.051 0.0257296 0)
(10.0568 0.0250511 0)
(10.0622 0.0241156 0)
(10.0674 0.0229629 0)
(10.0723 0.0216262 0)
(10.0768 0.0201349 0)
(10.081 0.0185199 0)
(10.0849 0.0168115 0)
(10.0885 0.0150684 0)
(10.0002 0.00280919 0)
(10.0022 0.00812504 0)
(10.006 0.012582 0)
(10.0112 0.0159197 0)
(10.0169 0.0182707 0)
(10.0229 0.0198457 0)
(10.0289 0.020783 0)
(10.035 0.0211836 0)
(10.0409 0.0211503 0)
(10.0466 0.0207742 0)
(10.0521 0.0201223 0)
(10.0573 0.0192426 0)
(10.0622 0.0181739 0)
(10.0669 0.0169493 0)
(10.0712 0.0155993 0)
(10.0753 0.0141539 0)
(10.079 0.0126404 0)
(10.0824 0.011111 0)
(10.0002 0.00205842 0)
(10.0019 0.00594995 0)
(10.0052 0.00924696 0)
(10.0097 0.0117586 0)
(10.0148 0.0135337 0)
(10.0202 0.0146986 0)
(10.0258 0.015357 0)
(10.0314 0.0155871 0)
(10.037 0.0154639 0)
(10.0424 0.0150559 0)
(10.0475 0.0144181 0)
(10.0525 0.0135925 0)
(10.0572 0.0126137 0)
(10.0616 0.011512 0)
(10.0657 0.0103152 0)
(10.0696 0.00904999 0)
(10.0732 0.00773851 0)
(10.0765 0.00642589 0)
(10.0002 0.00127514 0)
(10.0016 0.00368063 0)
(10.0045 0.00571777 0)
(10.0084 0.0072618 0)
(10.013 0.00832242 0)
(10.018 0.0089644 0)
(10.0231 0.00925189 0)
(10.0283 0.00923709 0)
(10.0335 0.00896879 0)
(10.0386 0.00849305 0)
(10.0435 0.007849 0)
(10.0482 0.00706868 0)
(10.0526 0.00617898 0)
(10.0568 0.00520408 0)
(10.0608 0.00416574 0)
(10.0645 0.00308499 0)
(10.068 0.00197762 0)
(10.0712 0.000880539 0)
(10.0002 0.000443986 0)
(10.0014 0.0012665 0)
(10.004 0.00192225 0)
(10.0075 0.00234893 0)
(10.0117 0.00254583 0)
(10.0163 0.00253641 0)
(10.0211 0.00234675 0)
(10.026 0.00200054 0)
(10.0309 0.00152134 0)
(10.0357 0.000931966 0)
(10.0403 0.000252635 0)
(10.0448 -0.000499125 0)
(10.0491 -0.0013077 0)
(10.0531 -0.00215854 0)
(10.0569 -0.00303818 0)
(10.0605 -0.00393349 0)
(10.0639 -0.00483541 0)
(10.067 -0.00571611 0)
(10.0001 -0.000477878 0)
(10.0014 -0.00141506 0)
(10.0038 -0.00231687 0)
(10.0071 -0.00318011 0)
(10.0112 -0.00400094 0)
(10.0156 -0.00479004 0)
(10.0202 -0.00556161 0)
(10.025 -0.00632315 0)
(10.0297 -0.0070774 0)
(10.0343 -0.00782621 0)
(10.0388 -0.00857156 0)
(10.0432 -0.00931403 0)
(10.0473 -0.010053 0)
(10.0513 -0.0107865 0)
(10.055 -0.0115121 0)
(10.0585 -0.0122262 0)
(10.0618 -0.0129277 0)
(10.0649 -0.0135988 0)
(10.0002 -0.00135079 0)
(10.0014 -0.00396397 0)
(10.004 -0.00635905 0)
(10.0075 -0.00845127 0)
(10.0117 -0.0102281 0)
(10.0163 -0.011744 0)
(10.021 -0.013055 0)
(10.0258 -0.0141961 0)
(10.0306 -0.0151951 0)
(10.0353 -0.0160816 0)
(10.0399 -0.0168805 0)
(10.0442 -0.0176102 0)
(10.0484 -0.0182836 0)
(10.0523 -0.0189107 0)
(10.0561 -0.0194989 0)
(10.0596 -0.0200533 0)
(10.0629 -0.0205786 0)
(10.0659 -0.0210656 0)
(10.0002 -0.00209064 0)
(10.0016 -0.00615929 0)
(10.0043 -0.00985718 0)
(10.0083 -0.0129563 0)
(10.0129 -0.0154636 0)
(10.0177 -0.017529 0)
(10.0227 -0.0192507 0)
(10.0277 -0.0206688 0)
(10.0327 -0.0218283 0)
(10.0376 -0.0227869 0)
(10.0422 -0.0235938 0)
(10.0467 -0.0242836 0)
(10.0509 -0.0248815 0)
(10.0549 -0.0254077 0)
(10.0587 -0.0258774 0)
(10.0622 -0.0263017 0)
(10.0656 -0.0266896 0)
(10.0687 -0.0270378 0)
(10.0002 -0.00277447 0)
(10.0017 -0.00829233 0)
(10.0049 -0.0133232 0)
(10.0094 -0.0173385 0)
(10.0145 -0.0204193 0)
(10.0198 -0.0228975 0)
(10.0251 -0.0249266 0)
(10.0304 -0.0265467 0)
(10.0357 -0.0278187 0)
(10.0408 -0.0288207 0)
(10.0456 -0.0296152 0)
(10.0502 -0.030247 0)
(10.0545 -0.0307528 0)
(10.0586 -0.031163 0)
(10.0624 -0.0315013 0)
(10.066 -0.0317843 0)
(10.0694 -0.0320251 0)
(10.0725 -0.032223 0)
(10.0001 -0.00338297 0)
(10.0017 -0.0104009 0)
(10.0055 -0.016774 0)
(10.0109 -0.0216178 0)
(10.0166 -0.025242 0)
(10.0223 -0.0281024 0)
(10.028 -0.0303265 0)
(10.0337 -0.031999 0)
(10.0392 -0.0332636 0)
(10.0445 -0.0342385 0)
(10.0495 -0.0349889 0)
(10.0543 -0.0355592 0)
(10.0587 -0.0359899 0)
(10.0629 -0.0363165 0)
(10.0668 -0.0365652 0)
(10.0705 -0.036755 0)
(10.0739 -0.0369005 0)
(10.0771 -0.0370071 0)
(10.0001 -0.00387168 0)
(10.0016 -0.0128924 0)
(10.0061 -0.0203217 0)
(10.0124 -0.0253847 0)
(10.0188 -0.0294428 0)
(10.025 -0.0329061 0)
(10.0312 -0.0355067 0)
(10.0373 -0.0372748 0)
(10.0431 -0.0384758 0)
(10.0486 -0.0393107 0)
(10.0538 -0.0398772 0)
(10.0587 -0.0402409 0)
(10.0633 -0.0404601 0)
(10.0675 -0.0405829 0)
(10.0716 -0.0406416 0)
(10.0753 -0.0406584 0)
(10.0788 -0.040646 0)
(10.082 -0.0406015 0)
(9.9998 -0.00354911 0)
(10.0011 -0.016551 0)
(10.007 -0.0255218 0)
(10.0141 -0.0296955 0)
(10.0207 -0.0330168 0)
(10.0273 -0.0364717 0)
(10.0341 -0.0394034 0)
(10.0409 -0.04158 0)
(10.0473 -0.0431608 0)
(10.0532 -0.044293 0)
(10.0587 -0.0450569 0)
(10.0639 -0.0455272 0)
(10.0688 -0.0457806 0)
(10.0733 -0.0458816 0)
(10.0775 -0.045878 0)
(10.0814 -0.0458029 0)
(10.0851 -0.0456822 0)
(10.0885 -0.0455257 0)
(9.99829 2.55908e-07 0)
(9.99797 -0.0176199 0)
(10.0068 -0.0315036 0)
(10.0162 -0.0375884 0)
(10.0234 -0.0402855 0)
(10.0303 -0.0418365 0)
(10.0379 -0.0427921 0)
(10.0455 -0.0434864 0)
(10.0526 -0.0440863 0)
(10.0593 -0.0445996 0)
(10.0656 -0.0449931 0)
(10.0715 -0.0452788 0)
(10.077 -0.0454784 0)
(10.082 -0.0456197 0)
(10.0867 -0.0457171 0)
(10.091 -0.045787 0)
(10.095 -0.0458347 0)
(10.0986 -0.0458277 0)
(9.99413 0.00277652 0)
(9.98996 -0.00760078 0)
(10.0032 -0.0228599 0)
(10.0185 -0.0396803 0)
(10.0302 -0.0530713 0)
(10.0403 -0.0608425 0)
(10.0501 -0.0643786 0)
(10.0593 -0.065626 0)
(10.0677 -0.0657133 0)
(10.0756 -0.0650879 0)
(10.0829 -0.0640324 0)
(10.0897 -0.0627369 0)
(10.0959 -0.0613641 0)
(10.1015 -0.0599943 0)
(10.1066 -0.0586927 0)
(10.1113 -0.0574885 0)
(10.1156 -0.0564076 0)
(10.1195 -0.0554026 0)
(9.9942 -0.0305074 0)
(9.99526 -0.0134573 0)
(10.0086 0.0215191 0)
(10.0272 0.0320172 0)
(10.047 0.0241427 0)
(10.0668 0.0116006 0)
(10.085 -0.000117489 0)
(10.1007 -0.0103333 0)
(10.1139 -0.0189732 0)
(10.125 -0.0260459 0)
(10.1343 -0.0316467 0)
(10.1418 -0.0360182 0)
(10.1476 -0.0393917 0)
(10.1519 -0.0419847 0)
(10.1549 -0.0439606 0)
(10.1568 -0.0454886 0)
(10.1578 -0.0466981 0)
(10.1578 -0.0477345 0)
(10.0368 -0.209413 0)
(10.1083 -0.3659 0)
(10.1423 -0.352747 0)
(10.1567 -0.298036 0)
(10.1697 -0.247624 0)
(10.182 -0.206793 0)
(10.1884 -0.174356 0)
(10.1867 -0.148993 0)
(10.1774 -0.129275 0)
(10.1619 -0.113751 0)
(10.1413 -0.101354 0)
(10.1168 -0.0913246 0)
(10.0893 -0.083131 0)
(10.0597 -0.076368 0)
(10.0287 -0.0707547 0)
(9.99682 -0.0661112 0)
(9.9646 -0.0622875 0)
(9.93271 -0.0595844 0)
(9.92866 0.765531 0)
(9.83924 0.742069 0)
(9.70533 0.52443 0)
(9.52634 0.348782 0)
(9.33184 0.227689 0)
(9.1406 0.146985 0)
(8.95878 0.0935812 0)
(8.78887 0.0579872 0)
(8.63226 0.0341222 0)
(8.48959 0.0181052 0)
(8.36022 0.00744039 0)
(8.24334 0.000462349 0)
(8.13778 -0.00408551 0)
(8.04247 -0.00693917 0)
(7.95631 -0.00861719 0)
(7.87831 -0.00955532 0)
(7.80712 -0.0100374 0)
(7.74237 -0.010649 0)
(0.00585715 -0.0117392 -8.65593e-19)
(0.019217 -0.0211006 7.06968e-19)
(0.033687 -0.0228361 0)
(0.0466268 -0.0197911 0)
(0.0557035 -0.0142634 0)
(0.0604216 -0.0078951 -4.35591e-19)
(0.0608627 -0.00176122 0)
(0.0574732 0.00341217 0)
(0.0511933 0.0073167 0)
(0.0427235 0.0100596 0)
(0.0326494 0.0119509 4.635e-19)
(0.0214094 0.0133069 0)
(0.00926127 0.0143204 0)
(-0.00365335 0.0149833 0)
(-0.0173535 0.015382 0)
(-0.0319301 0.0157728 4.29581e-19)
(-0.0474632 0.0162909 0)
(-0.0640569 0.0169762 0)
(-0.0818183 0.0178288 0)
(-0.100846 0.0188326 0)
(-0.121218 0.0199646 0)
(-0.142997 0.0211966 0)
(-0.166214 0.022497 0)
(-0.190881 0.0238315 2.23173e-19)
(-0.21698 0.0251675 -2.07333e-19)
(-0.244473 0.0264754 1.93012e-19)
(-0.273301 0.0277308 1.80079e-19)
(-0.303393 0.0289097 0)
(-0.334661 0.0299891 0)
(-0.367009 0.030952 -1.48324e-19)
(-0.40033 0.0317906 -1.39724e-19)
(-0.434514 0.0325006 0)
(-0.469451 0.0330826 0)
(-0.505035 0.0335347 -1.18513e-19)
(-0.541159 0.0338587 0)
(-0.577731 0.0340578 0)
(-0.61466 0.0341413 1.02618e-19)
(-0.651871 0.0341236 0)
(-0.689294 0.0340272 9.42019e-20)
(-0.726872 0.0338762 1.81025e-19)
(-0.764547 0.0336994 0)
(-0.802269 0.0335203 0)
(-0.84007 0.0333551 0)
(-0.877963 0.0331969 0)
(-0.915937 0.0330396 0)
(-0.953988 0.0328811 1.46927e-19)
(-0.992114 0.0327218 1.42533e-19)
(-1.03031 0.0325599 1.38416e-19)
(-1.06857 0.0323962 0)
(-1.10689 0.0322291 -1.30918e-19)
(-1.14526 0.0320592 0)
(-1.18368 0.0318845 1.24263e-19)
(-1.22213 0.0317055 1.21209e-19)
(-1.26061 0.0315201 0)
(-1.2991 0.0313282 0)
(-1.33759 0.0311271 0)
(-1.37606 0.0309168 1.1049e-19)
(-1.4145 0.0306948 0)
(-1.45289 0.0304608 0)
(-1.49121 0.0302118 0)
(-1.52943 0.0299482 0)
(-1.56753 0.0296673 0)
(-1.60548 0.0293691 0)
(-1.64325 0.0290506 0)
(-1.68081 0.0287124 0)
(-1.71814 0.0283517 -9.26335e-20)
(-1.75519 0.0279693 0)
(-1.79193 0.0275628 0)
(-1.82832 0.0271331 8.79963e-20)
(-1.86433 0.0266779 8.6557e-20)
(-1.89991 0.0261983 0)
(-1.93501 0.025692 -8.38175e-20)
(-1.96961 0.0251602 8.25109e-20)
(-2.00365 0.0246009 0)
(-2.03709 0.0240156 -8.00082e-20)
(-2.06988 0.0234023 0)
(-2.10197 0.0227631 0)
(-2.13332 0.0220964 7.64904e-20)
(-2.16387 0.0214038 0)
(-2.19357 0.020683 -7.42733e-20)
(-2.22238 0.0199362 0)
(-2.25023 0.0191613 7.21366e-20)
(-2.27709 0.0183598 7.10929e-20)
(-2.30289 0.0175292 7.00625e-20)
(-2.32759 0.0166706 1.38088e-19)
(-2.35113 0.0157811 -1.36069e-19)
(-2.37345 0.0148602 0)
(-2.39449 0.013903 0)
(-2.41419 0.0129054 0)
(-2.4325 0.0118603 -1.28106e-19)
(-2.44936 0.0107587 -1.26124e-19)
(-2.46469 0.00959234 1.24139e-19)
(-2.47841 0.00835429 0)
(-2.49045 0.0070423 -1.20149e-19)
(-2.50071 0.00566509 -1.18143e-19)
(-2.50909 0.00425204 -1.1613e-19)
(-2.51545 0.00284977 0)
(-2.51966 0.00150904 0)
(-2.52159 0.000303028 0)
(-2.52177 -0.000792283 -1.07814e-19)
(-2.52015 -0.00186098 0)
(-2.51675 -0.00292421 0)
(-2.51156 -0.00399163 1.01051e-19)
(-2.50457 -0.00506384 0)
(-2.49575 -0.00613964 0)
(-2.48508 -0.00721864 9.37486e-20)
(-2.47256 -0.00829907 0)
(-2.45817 -0.00937987 0)
(-2.44191 -0.0104588 -8.57938e-20)
(-2.42377 -0.0115341 -8.29777e-20)
(-2.40377 -0.0126034 0)
(-2.38191 -0.0136644 7.70738e-20)
(-2.3582 -0.0147145 0)
(-2.33266 -0.0157509 -7.07805e-20)
(-2.30532 -0.0167711 0)
(-2.27621 -0.0177716 -6.40661e-20)
(-2.24536 -0.0187498 -6.05417e-20)
(-2.21282 -0.0197016 0)
(-2.17863 -0.0206243 0)
(-2.14285 -0.0215138 0)
(-2.10552 -0.0223679 0)
(-2.06672 -0.0231829 0)
(-2.02652 -0.0239583 0)
(-1.98498 -0.0246904 0)
(-1.9422 -0.0253805 -2.79107e-20)
(-1.89824 -0.0260252 2.32387e-20)
(-1.85319 -0.0266271 0)
(-1.80712 -0.0271793 0)
(-1.76013 -0.0276791 0)
(-1.71232 -0.0281215 0)
(-1.66377 -0.0285106 -4.39205e-21)
(-1.61458 -0.0288425 0)
(-1.56484 -0.0291152 2.67132e-20)
(-1.51465 -0.0293259 -3.82989e-20)
(-1.46411 -0.0294747 0)
(-1.41332 -0.0295595 0)
(-1.36237 -0.0295797 0)
(-1.31135 -0.0295345 8.74563e-20)
(-1.26037 -0.0294242 1.00443e-19)
(-1.2095 -0.0292538 0)
(-1.15885 -0.0290255 1.27243e-19)
(-1.10849 -0.0287434 1.41048e-19)
(-1.05851 -0.0284095 -1.55118e-19)
(-1.00896 -0.0280263 0)
(-0.959921 -0.0275954 0)
(-0.911439 -0.0271207 -1.98889e-19)
(-0.863568 -0.0266048 0)
(-0.816348 -0.0260526 0)
(-0.769812 -0.0254676 0)
(-0.723984 -0.0248563 0)
(-0.678876 -0.024222 2.76884e-19)
(-0.634492 -0.0235722 2.9324e-19)
(-0.590825 -0.0229124 0)
(-0.547856 -0.0222516 3.26755e-19)
(-0.505554 -0.0215949 0)
(-0.463877 -0.0209508 0)
(-0.422771 -0.0203277 3.79295e-19)
(-0.382168 -0.0197367 0)
(-0.341989 -0.0191844 4.16209e-19)
(-0.302141 -0.0186833 0)
(-0.262517 -0.0182466 0)
(-0.222999 -0.017885 4.75671e-19)
(-0.183463 -0.0176091 0)
(-0.143743 -0.0174504 5.19333e-19)
(-0.103679 -0.0174443 0)
(-0.0631689 -0.0175951 0)
(-0.0221005 -0.0178362 0)
(0.0194299 -0.0179371 -6.16231e-19)
(0.0607555 -0.0176783 0)
(0.102399 -0.0173733 6.02748e-19)
(0.145374 -0.017337 0)
(0.18991 -0.0175365 0)
(0.236371 -0.0179162 0)
(0.284999 -0.0184087 0)
(0.335955 -0.0189461 0)
(0.388952 -0.0194112 0)
(0.444182 -0.0195473 0)
(0.496947 -0.0187956 -1.02541e-18)
(0.555983 -0.0158658 0)
(0.5642 0.00170295 0)
(0.00766741 -0.0404037 1.97097e-18)
(0.0180174 -0.0471808 -1.15417e-18)
(0.0227925 -0.0385223 0)
(0.023822 -0.0266447 3.69679e-19)
(0.0219114 -0.0141701 0)
(0.0174652 -0.00218754 1.49043e-19)
(0.0108999 0.0086017 -2.85909e-19)
(0.00238241 0.017748 -2.78847e-19)
(-0.00812606 0.0251062 0)
(-0.0205713 0.0308438 -2.61282e-19)
(-0.0348707 0.0352988 -1.26069e-19)
(-0.0509219 0.0388533 0)
(-0.0686409 0.0418474 0)
(-0.0879272 0.0445395 0)
(-0.108647 0.0471293 0)
(-0.130724 0.0497688 -1.05138e-19)
(-0.154142 0.0525449 0)
(-0.178885 0.055483 1.95274e-19)
(-0.204929 0.0585638 0)
(-0.232239 0.0617416 0)
(-0.260765 0.0649582 -1.74219e-19)
(-0.290444 0.068151 0)
(-0.321198 0.0712584 1.61022e-19)
(-0.352937 0.0742227 -7.74734e-20)
(-0.385561 0.076994 7.44504e-20)
(-0.418968 0.079532 -7.15572e-20)
(-0.453049 0.081809 -6.87994e-20)
(-0.487699 0.0838105 0)
(-0.522816 0.0855282 0)
(-0.558304 0.0869538 6.13496e-20)
(-0.594078 0.0880835 -5.89716e-20)
(-0.630059 0.0889269 0)
(-0.666177 0.089505 0)
(-0.702372 0.0898416 5.33113e-20)
(-0.738599 0.0899619 0)
(-0.77482 0.0898908 0)
(-0.811012 0.0896547 -4.84803e-20)
(-0.847162 0.0892787 0)
(-0.883268 0.0887915 4.55914e-20)
(-0.919327 0.0882239 -8.90162e-20)
(-0.955341 0.0876095 0)
(-0.991306 0.0869783 0)
(-1.02721 0.0863471 -1.64562e-19)
(-1.06305 0.0857159 -1.60655e-19)
(-1.09882 0.0850832 -1.56956e-19)
(-1.1345 0.0844472 7.65648e-20)
(-1.17011 0.0838077 -7.52153e-20)
(-1.20563 0.0831627 -2.20571e-19)
(-1.24107 0.0825112 1.4392e-19)
(-1.27641 0.0818508 7.06772e-20)
(-1.31166 0.0811802 0)
(-1.3468 0.0804963 -6.79819e-20)
(-1.38182 0.0797978 6.64021e-20)
(-1.41672 0.0790813 0)
(-1.45148 0.0783448 0)
(-1.48609 0.0775842 0)
(-1.52053 0.0767978 -6.21507e-20)
(-1.55478 0.0759816 0)
(-1.58883 0.0751337 1.19916e-19)
(-1.62265 0.07425 0)
(-1.65623 0.0733293 1.16117e-19)
(-1.68953 0.0723678 0)
(-1.72253 0.0713644 -1.12557e-19)
(-1.7552 0.0703154 0)
(-1.78752 0.06922 1.09207e-19)
(-1.81946 0.068075 -5.36576e-20)
(-1.85098 0.0668803 0)
(-1.88206 0.0656332 -1.04515e-19)
(-1.91266 0.0643342 -5.16502e-20)
(-1.94275 0.0629807 -5.09207e-20)
(-1.97229 0.0615736 0)
(-2.00125 0.0601106 -4.92506e-20)
(-2.02958 0.0585928 -4.88187e-20)
(-2.05726 0.0570182 0)
(-2.08425 0.0553886 4.74772e-20)
(-2.1105 0.0537023 -9.34135e-20)
(-2.13597 0.0519618 0)
(-2.16063 0.0501663 -4.55315e-20)
(-2.18444 0.0483178 0)
(-2.20734 0.0464149 1.32602e-19)
(-2.22931 0.0444601 0)
(-2.2503 0.0424524 -1.2887e-19)
(-2.27026 0.0403941 -4.23937e-20)
(-2.28915 0.0382843 4.16165e-20)
(-2.30694 0.036126 8.20122e-20)
(-2.32358 0.0339184 -8.079e-20)
(-2.33902 0.0316646 0)
(-2.35322 0.0293631 0)
(-2.36613 0.0270149 0)
(-2.37773 0.0246177 2.27888e-19)
(-2.38797 0.0221684 7.47341e-20)
(-2.39682 0.0196638 -7.34356e-20)
(-2.40426 0.0170997 0)
(-2.41026 0.0144708 -7.07471e-20)
(-2.41482 0.0117721 6.94473e-20)
(-2.41796 0.00901083 6.80871e-20)
(-2.41975 0.0062196 0)
(-2.42028 0.00346362 0)
(-2.41966 0.000833611 0)
(-2.41749 -0.00168394 6.23564e-20)
(-2.41365 -0.00416279 0)
(-2.40811 -0.00662027 -1.18802e-19)
(-2.40083 -0.00906517 -1.73435e-19)
(-2.39177 -0.0114975 1.12537e-19)
(-2.38093 -0.0139137 0)
(-2.36828 -0.0163098 5.31815e-20)
(-2.35382 -0.0186806 0)
(-2.33753 -0.0210214 9.92262e-20)
(-2.31941 -0.0233267 -4.80944e-20)
(-2.29947 -0.0255916 -4.63263e-20)
(-2.2777 -0.0278104 0)
(-2.25412 -0.0299777 -1.2685e-19)
(-2.22875 -0.0320877 8.09554e-20)
(-2.2016 -0.0341345 3.8198e-20)
(-2.17271 -0.0361128 0)
(-2.1421 -0.0380167 3.41515e-20)
(-2.10981 -0.0398413 9.70036e-20)
(-2.07589 -0.0415806 0)
(-2.04038 -0.0432296 5.64513e-20)
(-2.00334 -0.044782 5.20944e-20)
(-1.96482 -0.0462334 4.76625e-20)
(-1.92489 -0.0475788 0)
(-1.88363 -0.0488165 0)
(-1.8411 -0.0499435 0)
(-1.7974 -0.0509629 -1.51574e-20)
(-1.7526 -0.0518785 -1.16803e-20)
(-1.70678 -0.0526921 0)
(-1.66004 -0.0533815 -1.47795e-20)
(-1.61245 -0.0539517 -9.86347e-21)
(-1.56411 -0.054414 0)
(-1.51511 -0.0547675 1.29868e-21)
(-1.46555 -0.0550048 1.02191e-20)
(-1.41551 -0.0551299 -1.13919e-20)
(-1.36509 -0.055141 -1.39784e-20)
(-1.31439 -0.0550412 0)
(-1.2635 -0.0548317 0)
(-1.21252 -0.054516 0)
(-1.16154 -0.0540963 -3.67786e-20)
(-1.11064 -0.0535778 3.93595e-20)
(-1.05991 -0.0529681 9.12677e-20)
(-1.00943 -0.0522771 -5.18563e-20)
(-0.959276 -0.0515142 5.44275e-20)
(-0.909527 -0.0506882 6.17321e-20)
(-0.860244 -0.0498047 0)
(-0.811482 -0.0488722 0)
(-0.763289 -0.0478976 -7.39408e-20)
(-0.715707 -0.0468905 0)
(-0.668767 -0.0458578 0)
(-0.622492 -0.0448106 1.77795e-19)
(-0.576895 -0.0437576 0)
(-0.531978 -0.0427105 9.67718e-20)
(-0.487732 -0.0416765 -1.0284e-19)
(-0.444138 -0.0406686 0)
(-0.401164 -0.0396962 1.09331e-19)
(-0.358767 -0.0387722 0)
(-0.316888 -0.0379035 0)
(-0.275456 -0.0371056 -1.22209e-19)
(-0.234388 -0.036387 2.50195e-19)
(-0.193582 -0.0357597 -1.29116e-19)
(-0.152921 -0.0352325 0)
(-0.112273 -0.0348246 0)
(-0.0714938 -0.034541 1.37705e-19)
(-0.0304221 -0.0343917 0)
(0.0110993 -0.0343749 1.43556e-19)
(0.0530651 -0.0344296 0)
(0.0957194 -0.0345514 0)
(0.139454 -0.0347635 0)
(0.18462 -0.0349808 1.45542e-19)
(0.231596 -0.0352532 0)
(0.280602 -0.0357905 -1.45501e-19)
(0.331703 -0.0366619 0)
(0.385026 -0.0377972 0)
(0.440728 -0.0391155 2.90762e-19)
(0.498894 -0.0405091 -2.91146e-19)
(0.559504 -0.0418361 0)
(0.622185 -0.0428736 0)
(0.686698 -0.043122 0)
(0.749795 -0.0417493 8.91258e-19)
(0.816119 -0.0356834 0)
(0.855542 -0.0145032 -6.21728e-19)
(0.00328681 -0.0595587 -7.38933e-22)
(0.00459211 -0.0522693 1.16013e-18)
(0.00115365 -0.0342523 0)
(-0.00493339 -0.0165003 -4.94794e-19)
(-0.0129427 1.29014e-05 0)
(-0.022483 0.0151135 0)
(-0.0333718 0.0286764 5.5855e-23)
(-0.0455853 0.0406109 1.53229e-19)
(-0.0591838 0.0508994 1.46312e-19)
(-0.0742433 0.0596434 1.41077e-19)
(-0.0908184 0.0670645 0)
(-0.108925 0.0734555 0)
(-0.128541 0.0791214 -1.28799e-19)
(-0.149613 0.0843378 -2.5045e-19)
(-0.172061 0.0893185 2.43513e-19)
(-0.195794 0.0941998 0)
(-0.220717 0.0990533 2.3e-19)
(-0.24673 0.103895 -1.1178e-19)
(-0.273728 0.108699 0)
(-0.301606 0.113413 2.10327e-19)
(-0.330262 0.117972 1.02069e-19)
(-0.359591 0.12231 -1.97684e-19)
(-0.389494 0.126361 -9.58667e-20)
(-0.419876 0.130073 0)
(-0.450648 0.133403 1.79794e-19)
(-0.481731 0.136321 1.74202e-19)
(-0.513054 0.138806 0)
(-0.544554 0.140853 1.63634e-19)
(-0.576172 0.142467 0)
(-0.607858 0.143667 1.53796e-19)
(-0.639579 0.14448 7.46561e-20)
(-0.671315 0.144937 0)
(-0.703054 0.145073 0)
(-0.734787 0.144925 0)
(-0.76651 0.144533 0)
(-0.798223 0.143935 0)
(-0.82993 0.143167 0)
(-0.861635 0.142265 1.22984e-19)
(-0.893344 0.141261 -1.80064e-19)
(-0.925061 0.140185 0)
(-0.956787 0.139065 0)
(-0.988516 0.13792 0)
(-1.02024 0.136765 1.49124e-22)
(-1.05195 0.135603 1.07328e-19)
(-1.08365 0.134438 2.10084e-19)
(-1.11532 0.133269 -2.05863e-19)
(-1.14697 0.132096 -1.0083e-19)
(-1.17859 0.130916 9.906e-20)
(-1.21017 0.129728 -1.6814e-22)
(-1.2417 0.128527 9.52545e-20)
(-1.27319 0.12731 0)
(-1.30462 0.126073 9.18907e-20)
(-1.33597 0.124813 -1.75379e-22)
(-1.36725 0.123524 0)
(-1.39843 0.122202 0)
(-1.42951 0.120843 -8.58559e-20)
(-1.46046 0.119443 0)
(-1.49127 0.117996 0)
(-1.52193 0.116498 8.1649e-20)
(-1.5524 0.114946 1.61127e-19)
(-1.58268 0.113335 -7.95123e-20)
(-1.61273 0.111662 0)
(-1.64254 0.109923 7.71516e-20)
(-1.67207 0.108116 0)
(-1.7013 0.106237 7.45639e-20)
(-1.73021 0.104284 7.38221e-20)
(-1.75877 0.102255 -1.45189e-19)
(-1.78693 0.100148 -7.1393e-20)
(-1.81469 0.0979617 0)
(-1.84199 0.0956946 1.39084e-19)
(-1.86881 0.0933463 0)
(-1.89512 0.0909155 2.02934e-19)
(-1.92087 0.0884021 1.33284e-19)
(-1.94604 0.0858056 1.31405e-19)
(-1.97058 0.0831265 -1.29547e-19)
(-1.99447 0.0803647 1.91699e-19)
(-2.01765 0.077522 0)
(-2.04009 0.0745985 0)
(-2.06176 0.0715958 -1.22286e-19)
(-2.08261 0.0685142 -1.80864e-19)
(-2.10259 0.0653558 0)
(-2.12168 0.0621211 5.85741e-20)
(-2.13983 0.0588123 0)
(-2.15699 0.0554303 -1.70184e-19)
(-2.17313 0.0519778 -1.63016e-22)
(-2.1882 0.0484562 1.48648e-22)
(-2.20217 0.0448685 1.08047e-19)
(-2.215 0.0412159 0)
(-2.22663 0.037501 -1.04436e-19)
(-2.23705 0.0337255 -8.58255e-23)
(-2.24622 0.0298917 0)
(-2.2541 0.026004 0)
(-2.26068 0.0220698 0)
(-2.26593 0.0180998 9.51537e-20)
(-2.26985 0.0141102 0)
(-2.27241 0.0101229 0)
(-2.27359 0.00616105 0)
(-2.27335 0.00223761 0)
(-2.27163 -0.00167368 0)
(-2.26834 -0.00559263 8.30708e-20)
(-2.26344 -0.00950738 0)
(-2.25688 -0.0134109 7.85999e-20)
(-2.24865 -0.017298 7.63699e-20)
(-2.2387 -0.0211621 -7.41051e-20)
(-2.22703 -0.0249963 0)
(-2.21361 -0.0287924 -6.94669e-20)
(-2.19844 -0.0325423 0)
(-2.18151 -0.0362376 -6.46786e-20)
(-2.16281 -0.0398696 6.22268e-20)
(-2.14234 -0.0434297 1.799e-19)
(-2.12012 -0.0469087 0)
(-2.09616 -0.0502977 1.64701e-19)
(-2.07046 -0.0535874 5.28689e-20)
(-2.04305 -0.0567686 0)
(-2.01397 -0.0598323 9.43332e-20)
(-1.98323 -0.0627695 8.89379e-20)
(-1.95088 -0.0655718 -1.24688e-19)
(-1.91696 -0.0682306 0)
(-1.88153 -0.0707374 -3.56008e-20)
(-1.84462 -0.073084 -3.27436e-20)
(-1.80631 -0.0752628 -9.07762e-20)
(-1.76666 -0.0772678 0)
(-1.72573 -0.0790946 0)
(-1.6836 -0.0807401 0)
(-1.64036 -0.0822033 -1.94095e-20)
(-1.59608 -0.0834892 0)
(-1.55085 -0.0846065 0)
(-1.50476 -0.0855375 9.0292e-21)
(-1.45788 -0.0862731 6.00378e-21)
(-1.41031 -0.0868303 0)
(-1.36214 -0.0872129 0)
(-1.31345 -0.0874156 -6.15058e-21)
(-1.26433 -0.0874406 0)
(-1.21488 -0.0872889 1.81837e-20)
(-1.16517 -0.0869644 2.26384e-20)
(-1.11532 -0.0864714 0)
(-1.0654 -0.0858162 0)
(-1.01549 -0.0850049 -4.0301e-20)
(-0.965683 -0.0840469 -1.49288e-21)
(-0.916049 -0.082954 -1.47809e-21)
(-0.866667 -0.0817413 0)
(-0.817608 -0.0804229 -1.27447e-19)
(-0.768938 -0.0790127 0)
(-0.720711 -0.0775219 0)
(-0.672976 -0.0759642 0)
(-0.625773 -0.0743519 8.56414e-20)
(-0.579134 -0.0727 0)
(-0.533083 -0.0710204 -1.88646e-19)
(-0.487633 -0.0693299 -1.0034e-19)
(-0.442788 -0.0676429 0)
(-0.398541 -0.0659764 -1.09481e-19)
(-0.354873 -0.0643429 0)
(-0.311756 -0.062761 0)
(-0.269147 -0.0612454 -3.64393e-19)
(-0.226994 -0.0598146 2.502e-19)
(-0.185228 -0.0584808 0)
(-0.143768 -0.0572649 2.6508e-19)
(-0.102519 -0.0561813 -1.36765e-19)
(-0.0613717 -0.0552476 0)
(-0.0201961 -0.0544754 0)
(0.0211317 -0.05388 0)
(0.0627307 -0.0534613 -4.42144e-19)
(0.104798 -0.053238 0)
(0.147555 -0.0532123 -1.50035e-19)
(0.19122 -0.053398 0)
(0.236039 -0.0538202 0)
(0.282245 -0.0544691 0)
(0.330122 -0.0553085 0)
(0.379998 -0.0563755 0)
(0.432113 -0.0577536 0)
(0.486565 -0.0594701 -3.09235e-19)
(0.543454 -0.0614762 0)
(0.602863 -0.0636756 -1.56484e-19)
(0.664809 -0.0659239 4.71436e-19)
(0.729213 -0.0680143 0)
(0.795705 -0.0696103 0)
(0.864015 -0.0700619 -3.21795e-19)
(0.931772 -0.0682359 -3.27027e-19)
(1.00289 -0.0610225 3.3217e-19)
(1.05914 -0.0404004 3.42878e-19)
(-0.00290548 -0.0587833 -2.98875e-18)
(-0.00890346 -0.0399767 -1.39184e-18)
(-0.0177566 -0.0173 -5.23961e-19)
(-0.028532 0.00350016 -1.86648e-19)
(-0.0404842 0.0224149 0)
(-0.0532937 0.0396497 2.6415e-19)
(-0.0669392 0.0552872 -1.20366e-19)
(-0.0814818 0.0693524 0)
(-0.097008 0.0818882 -1.07458e-19)
(-0.113609 0.0929966 0)
(-0.131359 0.102845 2.00063e-19)
(-0.150297 0.111644 0)
(-0.170418 0.11962 9.45179e-20)
(-0.191683 0.126979 1.83986e-19)
(-0.21402 0.133887 -1.79085e-19)
(-0.237335 0.140456 0)
(-0.261521 0.146749 -1.69526e-19)
(-0.286466 0.152782 0)
(-0.312059 0.158538 0)
(-0.338192 0.163979 -1.5565e-19)
(-0.364767 0.169057 0)
(-0.391694 0.173724 5.05318e-23)
(-0.418896 0.177938 0)
(-0.446304 0.181667 0)
(-0.473862 0.184891 -3.70058e-23)
(-0.501524 0.187602 -1.30342e-19)
(-0.529255 0.189802 -1.26515e-19)
(-0.557027 0.191502 -1.22897e-19)
(-0.584825 0.192726 0)
(-0.612644 0.193508 -2.32175e-19)
(-0.640483 0.193891 0)
(-0.668342 0.193919 -1.09922e-19)
(-0.696225 0.193633 0)
(-0.724138 0.193076 0)
(-0.75209 0.192289 1.01751e-19)
(-0.780086 0.191311 0)
(-0.808135 0.190179 -9.69465e-20)
(-0.836242 0.188926 -3.65132e-23)
(-0.864411 0.18758 1.85231e-19)
(-0.892643 0.186166 -1.8114e-19)
(-0.920936 0.184705 0)
(-0.949284 0.183215 0)
(-0.977682 0.181705 -8.4955e-20)
(-1.00612 0.180181 0)
(-1.0346 0.178648 -8.17349e-20)