/*--------------------------------*- C++ -*----------------------------------*\
| =========                 |                                                 |
| \\      /  F ield         | OpenFOAM: The Open Source CFD Toolbox           |
|  \\    /   O peration     | Version:  2212                                  |
|   \\  /    A nd           | Website:  www.openfoam.com                      |
|    \\/     M anipulation  |                                                 |
\*---------------------------------------------------------------------------*/
FoamFile
{
    version     2.0;
    format      ascii;
    arch        "LSB;label=32;scalar=64";
    class       volScalarField;
    location    "50";
    object      epsilon;
}
// * * * * * * * * * * * * * * * * * * * * * * * * * * * * * * * * * * * * * //

dimensions      [0 2 -3 0 0 0 0];

internalField   nonuniform List<scalar> 
12225
(
1085.88
2467.57
3645.46
4413.37
4810.22
4974.84
4968.45
4916.06
4825.64
4708.87
4595.94
4485.27
4387.71
4291.31
4214.15
4127.5
4073.89
3981.09
81.256
262.448
439.101
585.209
692.627
764.796
807.905
833.129
851.789
862.526
874.816
883.295
895.458
907.055
919.854
936.027
949.308
975.756
20.6021
51.1253
83.6163
112.54
137.334
156.461
170.932
180.553
187.614
192.051
195.34
197.818
199.559
201.913
203.599
206.363
208.963
214.273
14.7647
21.8712
30.0646
38.4651
46.3438
53.0733
58.8505
63.4444
67.1185
70.0411
72.1661
74.0067
75.1478
76.3643
77.0114
77.8786
78.4563
79.6231
14.3618
16.3384
18.4776
21.4678
24.4815
27.269
29.8085
32.0483
33.94
35.6287
36.9449
38.1869
39.059
39.9769
40.5395
41.2384
41.6246
42.2568
14.6448
14.9555
15.434
16.4488
17.6258
18.8326
19.9953
21.1052
22.0806
23.0133
23.7737
24.5316
25.095
25.7125
26.1087
26.6319
26.884
27.4195
14.7184
14.639
14.6745
14.8766
15.2221
15.6848
16.1716
16.6849
17.1573
17.6405
18.048
18.4756
18.8041
19.1786
19.427
19.7652
19.9305
20.2941
14.7546
14.5906
14.4693
14.421
14.442
14.5159
14.6501
14.8293
15.0091
15.2147
15.3951
15.6009
15.7629
15.9585
16.0917
16.2791
16.3735
16.585
14.7642
14.5918
14.4346
14.3025
14.2028
14.1364
14.0972
14.0991
14.1119
14.1448
14.1829
14.2435
14.2909
14.3606
14.4077
14.4821
14.52
14.6172
14.7657
14.5942
14.4321
14.2825
14.1461
14.0287
13.9244
13.8425
13.773
13.7215
13.6765
13.6488
13.6222
13.6102
13.5959
13.5933
13.5887
13.6023
14.7658
14.5945
14.4324
14.2804
14.1366
14.0043
13.8803
13.7689
13.6657
13.5752
13.491
13.4189
13.3509
13.2946
13.2389
13.1966
13.1483
13.1218
14.7658
14.5944
14.4324
14.28
14.1354
14
13.8717
13.7524
13.6396
13.5359
13.4377
13.3485
13.2634
13.1876
13.1136
13.0502
12.985
12.9334
14.7657
14.5942
14.4322
14.2796
14.1351
13.999
13.8698
13.7484
13.6329
13.5248
13.4217
13.3258
13.234
13.1493
13.0677
12.9932
12.9206
12.8556
14.7657
14.594
14.432
14.2792
14.1348
13.9984
13.8692
13.7471
13.6312
13.5218
13.4176
13.3194
13.2258
13.1376
13.0535
12.9744
12.8989
12.828
14.7657
14.5939
14.4319
14.2789
14.1345
13.9979
13.8687
13.7465
13.6306
13.5208
13.4166
13.3178
13.224
13.135
13.0504
12.9702
12.8939
12.8215
14.7657
14.5938
14.4317
14.2786
14.1341
13.9975
13.8683
13.746
13.6301
13.5204
13.4161
13.3174
13.2235
13.1346
13.0499
12.9697
12.8933
12.821
14.7657
14.5937
14.4316
14.2785
14.1339
13.9973
13.868
13.7457
13.6298
13.5201
13.416
13.3173
13.2236
13.1347
13.0502
12.97
12.8939
12.8215
14.7656
14.5937
14.4315
14.2784
14.1338
13.9971
13.8679
13.7456
13.6298
13.5201
13.4161
13.3175
13.2239
13.1351
13.0508
12.9708
12.8947
12.8225
14.7656
14.5937
14.4314
14.2783
14.1337
13.9971
13.8679
13.7457
13.63
13.5204
13.4165
13.318
13.2246
13.1359
13.0518
12.9719
12.896
12.8239
14.7656
14.5937
14.4314
14.2784
14.1338
13.9974
13.8682
13.7462
13.6305
13.5211
13.4173
13.319
13.2257
13.1373
13.0532
12.9735
12.8977
12.8258
14.7657
14.5937
14.4316
14.2785
14.1341
13.9976
13.8687
13.7467
13.6314
13.522
13.4187
13.3205
13.2278
13.1395
13.0562
12.9768
12.9017
12.8302
14.7657
14.5937
14.4317
14.2787
14.1345
13.9982
13.8698
13.7484
13.6341
13.5261
13.4245
13.3284
13.2383
13.1528
13.0729
12.9967
12.9258
12.8578
14.7657
14.5936
14.4319
14.279
14.1363
14.0025
13.879
13.764
13.6587
13.5614
13.4728
13.3908
13.3167
13.2476
13.1858
13.1269
13.0758
13.0242
14.7645
14.5921
14.4336
14.287
14.1631
14.0553
13.9693
13.8981
13.8459
13.8045
13.7773
13.7564
13.7455
13.7375
13.7362
13.737
13.7411
13.7393
14.7478
14.5942
14.4765
14.4098
14.4231
14.4604
14.5541
14.6674
14.8116
14.9538
15.1124
15.2573
15.4128
15.5456
15.691
15.8039
15.9386
16.0266
14.6503
14.7818
14.9368
15.3384
15.9214
16.5436
17.2259
17.8632
18.5171
19.0941
19.6738
20.1642
20.6581
21.0565
21.471
21.7796
22.1307
22.3545
14.571
16.1274
17.9725
20.4101
22.9155
25.2367
27.5151
29.4919
31.4168
32.9979
34.5543
35.7572
36.9732
37.8497
38.78
39.3895
40.1038
40.4953
16.5397
25.8846
36.7068
46.5277
55.8174
64.1629
71.9569
78.4898
84.5022
89.1579
93.5217
96.5466
99.5969
101.361
103.49
104.378
105.929
106.226
45.7798
105.229
164.27
217.026
267.316
312.765
352.565
384.801
411.421
431.612
448.053
459.854
469.625
476.059
482.669
485.648
491.098
491.793
632.233
1081.36
1534.59
1881.48
2183.57
2433.32
2633.13
2777.15
2880.62
2940.3
2977.64
2983.66
2978.15
2964.13
2939.62
2909.43
2877.2
2843.05
9.74368
10.8452
18.1981
24.0265
28.1149
30.5964
31.7252
31.5963
30.7626
29.4079
27.7152
25.9387
24.4099
24.3171
25.069
27.5171
30.6987
34.183
37.9093
42.8497
50.7106
65.116
85.2499
109.898
138.149
169.184
200.106
231.321
262.11
292.603
322.499
352.045
380.947
409.535
437.501
465.228
492.349
519.303
545.659
571.91
597.584
623.23
648.339
673.47
698.049
722.609
746.519
770.283
793.249
816.004
837.972
859.83
881.004
902.166
922.962
943.296
962.423
979.96
996.119
1012.43
1028.65
1045.74
1061.56
1076.35
1089.05
1104.09
1116.26
1123.19
1133.82
1135.04
1134.51
1121.81
1131.55
1127.67
1102.39
1111.97
1104.48
1070.72
1075.96
1061.76
1017
1010.31
1005.14
960.931
960.38
911.646
907.509
895.992
850.341
843.253
795.337
781.174
746.633
728.47
706.73
686.259
665.922
646.08
626.644
607.707
589.212
571.219
553.698
536.671
520.075
503.443
486.946
471.104
455.844
441.081
426.859
413.089
399.792
386.906
374.484
362.501
351.025
340.425
332.26
325.348
318.781
312.344
306.07
299.896
293.882
287.927
282.128
276.375
270.752
265.213
259.749
254.426
249.256
243.8
238.248
232.681
227.302
222.069
217.072
212.212
207.441
202.727
198.136
193.707
189.49
185.469
181.633
177.953
174.439
171.064
167.802
164.556
161.247
157.739
153.872
149.393
144.035
137.467
129.503
120.093
109.655
98.7809
88.4267
79.2541
71.8172
66.0091
61.613
58.3012
56.0057
54.3222
53.1901
52.376
51.7877
51.9246
51.9923
51.8172
51.9784
51.7511
51.6474
49.7548
49.4844
38.2907
33.6618
30.0332
27.2395
25.4358
24.3248
23.7734
23.8418
24.3957
25.6402
27.6141
30.6971
35.9386
43.5403
53.3015
66.0526
82.2424
100.347
118.812
136.905
154.067
168.693
181.123
192.495
202.829
212.437
221.775
229.72
236.671
243.576
250.435
257.314
264.284
271.321
278.472
285.673
292.968
300.275
307.642
314.983
322.349
329.648
336.927
344.089
351.181
358.108
364.925
371.552
378.066
384.395
390.617
396.661
402.613
408.372
413.938
419.246
424.4
429.536
434.875
440.424
446.284
452.139
457.576
462.063
465.976
469.397
472.491
474.95
473.969
475.663
474.82
477.79
476.522
470.486
471.847
468.308
458.921
455.587
450.157
443.021
438.486
432.561
424.11
418.288
408.817
402.937
394.899
384.27
376.626
365.206
357.362
347.201
338.877
329.895
321.179
312.573
304.145
295.889
287.828
279.953
272.283
264.806
257.536
250.44
243.482
236.658
230.055
223.667
217.483
211.487
205.669
200.02
194.532
189.204
184.041
179.056
174.319
170.061
166.148
162.409
158.775
155.23
151.763
148.375
145.052
141.803
138.612
135.485
132.418
129.409
126.461
123.532
120.525
117.494
114.472
111.506
108.591
105.744
102.966
100.247
97.5723
94.9509
92.3992
89.9322
87.5533
85.2601
83.0464
80.9076
78.8325
76.8079
74.8045
72.7861
70.7033
68.4996
66.0982
63.4154
60.3561
56.8611
52.913
48.6088
44.1262
39.729
35.6767
32.1507
29.228
26.9009
25.0836
23.7248
22.7077
21.9837
21.4028
21.2064
21.0989
21.0636
21.0188
21.0678
21.383
22.1147
24.0306
107.477
60.0176
45.5832
39.1907
35.5426
33.4183
32.4817
32.6643
33.9967
36.9665
42.2907
50.9468
63.613
79.8128
97.8147
115.225
129.929
141.006
148.624
154.569
159.792
164.721
169.809
174.956
179.024
183.069
187.033
190.833
195.368
201.029
206.909
212.997
219.215
225.499
231.79
238.051
244.239
250.338
256.321
262.189
267.924
273.536
279.011
284.364
289.586
294.697
299.69
304.59
309.395
314.133
318.802
323.429
328.009
332.567
337.094
341.613
346.126
350.676
355.272
359.93
364.602
369.246
373.728
377.953
381.863
385.494
388.813
391.771
394.257
396.135
397.896
398.936
399.715
400.41
399.633
399.004
396.771
393.535
390.579
386.772
382.366
377.808
372.521
366.546
360.493
353.711
347.064
339.751
331.919
324.309
316.17
308.507
300.578
292.952
285.302
277.767
270.354
263.085
255.973
249.03
242.259
235.668
229.254
223.021
216.955
211.05
205.296
199.695
194.289
189.059
183.982
179.054
174.266
169.615
165.094
160.707
156.459
152.377
148.513
144.842
141.307
137.875
134.53
131.265
128.075
124.957
121.907
118.923
116.002
113.145
110.347
107.609
104.916
102.241
99.5861
96.9612
94.3812
91.8152
89.2667
86.765
84.3113
81.8898
79.5039
77.1669
74.8858
72.6641
70.5015
68.3956
66.3426
64.3359
62.3667
60.4178
58.465
56.4776
54.4171
52.2388
49.8903
47.3178
44.4833
41.3776
38.0473
34.5945
31.1712
27.9458
25.0511
22.5675
20.5205
18.8815
17.6106
16.636
15.9111
15.3596
14.9263
14.8399
14.6813
14.7116
14.7317
14.6959
15.1621
15.8166
160.322
76.0763
58.5318
51.5496
47.9447
46.3479
46.4503
48.5524
53.0056
60.2347
70.5372
83.6623
98.4359
112.789
124.632
132.805
138.26
142.194
145.689
148.267
150.649
153.259
156.066
159.383
163.818
168.693
173.967
179.618
185.689
192.063
198.542
205.055
211.543
217.958
224.264
230.44
236.462
242.327
248.025
253.563
258.941
264.172
269.259
274.222
279.066
283.815
288.476
293.074
297.617
302.13
306.622
311.113
315.61
320.133
324.685
329.282
333.927
338.628
343.376
348.162
352.953
357.723
362.402
366.951
371.332
375.522
379.479
383.15
386.468
389.4
391.952
394.011
395.578
396.404
397.317
397.243
396.188
394.349
391.918
388.746
384.892
380.433
375.321
369.617
363.44
356.775
349.766
342.359
334.664
326.829
318.839
310.873
302.881
294.966
287.109
279.355
271.729
264.255
256.947
249.818
242.875
236.123
229.564
223.197
217.018
211.02
205.195
199.525
194.06
188.767
183.634
178.651
173.816
169.123
164.566
160.146
155.864
151.729
147.753
143.926
140.223
136.626
133.123
129.707
126.373
123.118
119.939
116.832
113.795
110.828
107.927
105.091
102.312
99.5794
96.8909
94.2484
91.6557
89.105
86.5957
84.1353
81.7235
79.3278
76.951
74.6144
72.3154
70.0597
67.8464
65.6748
63.5424
61.4457
59.3792
57.3312
55.2841
53.2163
51.0922
48.8852
46.5557
44.064
41.3784
38.4894
35.4244
32.2535
29.089
26.0633
23.2932
20.8617
18.8089
17.1326
15.8054
14.7694
13.9806
13.3829
12.9
12.7474
12.6422
12.489
12.5551
12.4918
12.8238
13.1008
209.113
95.51
75.6961
68.3682
64.9951
63.8944
64.7646
68.039
73.7639
81.7194
91.2782
101.368
110.703
118.251
124.238
128.481
130.865
132.473
134.055
136.438
139.645
143.462
147.869
152.871
158.442
164.403
170.687
177.236
183.969
190.802
197.659
204.485
211.238
217.883
224.387
230.727
236.919
242.953
248.823
254.536
260.093
265.507
270.786
275.948
281.002
285.971
290.868
295.716
300.528
305.329
310.13
314.954
319.813
324.726
329.702
334.756
339.892
345.117
350.422
355.8
361.225
366.672
372.114
377.522
382.86
388.088
393.157
398.007
402.57
406.783
410.581
413.877
416.59
418.666
419.86
420.962
420.907
419.899
418.006
415.228
411.6
407.165
401.961
396.048
389.503
382.394
374.808
366.811
358.496
349.961
341.268
332.511
323.735
314.998
306.334
297.781
289.374
281.137
273.091
265.249
257.623
250.215
243.031
236.067
229.321
222.786
216.457
210.327
204.397
198.657
193.099
187.714
182.497
177.441
172.54
167.789
163.188
158.736
154.433
150.27
146.234
142.313
138.498
134.782
131.16
127.627
124.181
120.818
117.535
114.33
111.201
108.144
105.157
102.232
99.3667
96.561
93.8145
91.1243
88.4891
85.9105
83.3867
80.9069
78.4675
76.0707
73.6875
71.3334
69.006
66.7064
64.4328
62.1844
59.9591
57.7497
55.5438
53.325
51.0637
48.7421
46.3245
43.7785
41.0773
38.2108
35.1965
32.0869
28.9731
25.9679
23.1789
20.6914
18.554
16.781
15.3522
14.2187
13.3461
12.6742
12.1776
11.829
11.6802
11.5799
11.668
11.5857
11.8387
11.9496
253.173
116.849
94.5487
86.7857
83.2431
81.9541
82.2702
84.5603
88.5688
93.7977
99.548
105.082
110.109
114.088
116.724
118.743
120.971
123.508
126.602
130.379
134.794
139.755
145.21
151.107
157.392
163.952
170.724
177.629
184.67
191.794
198.947
206.087
213.178
220.191
227.102
233.9
240.566
247.09
253.467
259.697
265.781
271.73
277.549
283.253
288.853
294.369
299.813
305.208
310.569
315.919
321.274
326.658
332.085
337.579
343.154
348.828
354.613
360.52
366.552
372.71
378.985
385.365
391.829
398.351
404.892
411.403
417.827
424.091
430.116
435.811
441.081
445.822
449.928
453.297
455.863
457.336
458.443
458.295
457.011
454.622
451.172
446.708
441.291
434.993
427.9
420.105
411.708
402.811
393.521
383.934
374.147
364.249
354.316
344.413
334.591
324.899
315.376
306.054
296.956
288.1
279.497
271.154
263.072
255.252
247.688
240.375
233.306
226.475
219.876
213.499
207.336
201.377
195.613
190.037
184.64
179.416
174.358
169.464
164.726
160.138
155.687
151.365
147.164
143.076
139.095
135.218
131.44
127.756
124.164
120.661
117.244
113.91
110.655
107.475
104.367
101.33
98.3627
95.462
92.6266
89.8561
87.1482
84.4977
81.9007
79.3543
76.8468
74.3743
71.906
69.4487
67.0011
64.5667
62.1479
59.7421
57.341
54.9314
52.4929
50.0041
47.4377
44.7668
41.9694
39.0355
35.9767
32.8345
29.6852
26.6287
23.7659
21.183
18.9334
17.0436
15.4958
14.2543
13.2924
12.5399
11.9991
11.5741
11.4395
11.3756
11.362
11.2587
11.4314
11.4623
285.011
134.122
110.358
102.244
98.1837
95.9576
95.1051
95.1914
96.3976
98.4902
100.896
103.584
105.907
108.117
110.378
112.896
115.884
119.398
123.478
128.108
133.247
138.836
144.834
151.161
157.75
164.611
171.718
179.031
186.483
194.028
201.627
209.242
216.839
224.39
231.874
239.271
246.564
253.74
260.79
267.708
274.491
281.143
287.667
294.073
300.368
306.57
312.689
318.747
324.76
330.751
336.739
342.751
348.806
354.934
361.156
367.499
373.983
380.63
387.454
394.47
401.68
409.081
416.66
424.392
432.24
440.151
448.061
455.887
463.532
470.887
477.83
484.23
489.951
494.861
498.829
501.756
503.348
504.308
503.801
501.906
498.691
494.22
488.564
481.813
474.068
465.447
456.072
446.071
435.572
424.696
413.556
402.263
390.916
379.594
368.365
357.289
346.413
335.775
325.403
315.32
305.536
296.063
286.9
278.05
269.506
261.265
253.314
245.649
238.256
231.127
224.249
217.612
211.204
205.015
199.035
193.254
187.664
182.257
177.024
171.956
167.043
162.277
157.647
153.148
148.772
144.514
140.369
136.332
132.399
128.566
124.831
121.188
117.636
114.169
110.786
107.483
104.259
101.111
98.0374
95.036
92.1047
89.2398
86.4376
83.6936
81.0002
78.3491
75.7227
73.0946
70.4536
67.8123
65.1788
62.5548
59.9356
57.3111
54.6652
51.9786
49.2288
46.3939
43.456
40.4065
37.2536
34.0311
30.8047
27.665
24.7076
22.0178
19.6524
17.6429
15.9775
14.6269
13.5671
12.7353
12.1317
11.6539
11.3602
11.3394
11.3372
11.333
11.3616
11.3622
301.214
144.442
119.988
111.652
107.129
103.945
101.605
100.034
99.3086
99.2432
99.9609
101.051
102.621
104.638
107.135
110.146
113.699
117.781
122.373
127.437
132.939
138.837
145.095
151.687
158.606
165.798
173.227
180.867
188.679
196.626
204.673
212.786
220.933
229.084
237.211
245.293
253.306
261.233
269.058
276.771
284.362
291.829
299.169
306.387
313.485
320.476
327.37
334.184
340.933
347.641
354.329
361.026
367.757
374.556
381.451
388.479
395.669
403.056
410.666
418.528
426.656
435.062
443.741
452.679
461.842
471.181
480.626
490.09
499.462
508.612
517.396
525.65
533.206
539.893
545.543
550.006
552.872
554.607
555.178
553.945
551.093
546.7
540.851
533.65
525.22
515.702
505.249
494.015
482.158
469.821
457.149
444.277
431.326
418.395
405.571
392.924
380.514
368.385
356.574
345.105
333.997
323.258
312.893
302.901
293.275
284.007
275.086
266.501
258.238
250.284
242.625
235.247
228.137
221.281
214.667
208.283
202.117
196.158
190.397
184.823
179.424
174.19
169.114
164.185
159.397
154.743
150.217
145.813
141.526
137.352
133.286
129.324
125.461
121.695
118.022
114.438
110.942
107.53
104.199
100.947
97.7719
94.6697
91.6366
88.6676
85.7558
82.892
80.0614
77.2415
74.3915
71.5286
68.667
65.8123
62.9627
60.1104
57.2424
54.3422
51.3909
48.3705
45.267
42.0744
38.8001
35.4727
32.1492
28.9133
25.8559
23.0599
20.5836
18.4593
16.6838
15.2242
14.0701
13.1601
12.4842
11.9355
11.6248
11.4481
11.4787
11.4983
11.4179
11.5686
311.911
148.889
123.157
114.397
109.575
105.941
102.945
100.596
99.0882
98.4039
98.3184
99.0295
100.498
102.636
105.395
108.729
112.606
116.986
121.838
127.125
132.821
138.904
145.368
152.184
159.325
166.763
174.476
182.436
190.611
198.97
207.481
216.111
224.829
233.603
242.403
251.203
259.975
268.696
277.346
285.907
294.363
302.706
310.926
319.021
326.989
334.837
342.569
350.2
357.742
365.218
372.648
380.062
387.49
394.968
402.531
410.225
418.087
426.165
434.499
443.131
452.094
461.415
471.105
481.164
491.568
502.279
513.229
524.329
535.46
546.478
557.211
567.468
577.041
585.711
593.263
599.486
604.209
607.028
608.606
608.215
605.897
601.723
595.784
588.2
579.114
568.697
557.13
544.603
531.303
517.41
503.091
488.517
473.832
459.159
444.605
430.257
416.188
402.453
389.097
376.148
363.628
351.545
339.904
328.701
317.93
307.578
297.634
288.081
278.904
270.085
261.61
253.458
245.617
238.067
230.796
223.787
217.027
210.503
204.202
198.112
192.221
186.517
180.99
175.631
170.43
165.381
160.475
155.705
151.066
146.552
142.157
137.877
133.707
129.642
125.679
121.813
118.041
114.361
110.768
107.26
103.833
100.483
97.2073
93.9991
90.8516
87.7549
84.6946
81.6479
78.5728
75.4772
72.38
69.2892
66.2047
63.1205
60.0261
56.9073
53.7483
50.5347
47.2556
43.9073
40.4981
37.054
33.626
30.2918
27.1377
24.2432
21.6661
19.4374
17.5625
15.9997
14.7584
13.7699
13.0139
12.4006
12.034
11.8177
11.7532
11.7895
11.7717
11.8037
320.172
148.778
121.71
112.644
107.862
104.34
101.414
99.0219
97.2473
96.3887
96.3057
97.0926
98.6925
101.01
103.971
107.506
111.569
116.113
121.112
126.535
132.366
138.583
145.167
152.112
159.417
167.074
175.051
183.317
191.842
200.596
209.554
218.686
227.959
237.341
246.8
256.307
265.83
275.344
284.82
294.237
303.572
312.811
321.936
330.939
339.811
348.553
357.164
365.652
374.027
382.306
390.509
398.665
406.802
414.96
423.179
431.509
439.997
448.701
457.673
466.972
476.65
486.753
497.312
508.346
519.851
531.803
544.145
556.795
569.63
582.498
595.206
607.534
619.236
630.046
639.697
647.93
654.515
658.988
661.62
662.349
660.766
656.986
651.106
643.257
633.606
622.348
609.7
595.887
581.135
565.651
549.645
533.316
516.841
500.371
484.034
467.936
452.162
436.78
421.838
407.371
393.401
379.941
366.992
354.552
342.609
331.152
320.164
309.626
299.52
289.825
280.522
271.591
263.012
254.766
246.835
239.203
231.851
224.766
217.932
211.334
204.96
198.796
192.831
187.053
181.454
176.022
170.749
165.628
160.651
155.811
151.102
146.517
142.051
137.699
133.456
129.317
125.279
121.337
117.487
113.725
110.049
106.452
102.931
99.4787
96.0878
92.7477
89.4431
86.1501
82.8296
79.4936
76.1587
72.8324
69.5152
66.2024
62.885
59.5509
56.1872
52.7822
49.328
45.8231
42.277
38.7139
35.1824
31.7553
28.5139
25.5332
22.8692
20.5502
18.5876
16.9329
15.6103
14.5411
13.6997
13.0317
12.5638
12.3875
12.2419
12.1512
12.1076
12.103
318.454
145.144
116.97
107.567
102.928
99.762
97.2436
95.2593
93.9943
93.5168
93.7689
94.8247
96.6382
99.1341
102.246
105.909
110.079
114.716
119.799
125.307
131.232
137.558
144.267
151.344
158.787
166.58
174.716
183.181
191.975
201.069
210.426
220.011
229.789
239.723
249.785
259.946
270.173
280.431
290.693
300.931
311.118
321.232
331.252
341.16
350.942
360.592
370.1
379.471
388.706
397.819
406.824
415.747
424.614
433.465
442.34
451.291
460.372
469.649
479.185
489.054
499.325
510.066
521.332
533.166
545.585
558.588
572.138
586.164
600.553
615.148
629.746
644.1
657.93
670.923
682.753
693.096
701.644
708.069
712.144
714.033
713.344
710.134
704.478
696.514
686.426
674.44
660.807
645.791
629.655
612.652
595.022
576.999
558.792
540.577
522.501
504.692
487.245
470.243
453.738
437.773
422.371
407.549
393.307
379.642
366.542
353.994
341.975
330.467
319.446
308.89
298.776
289.082
279.783
270.859
262.288
254.052
246.13
238.505
231.159
224.078
217.244
210.645
204.266
198.095
192.12
186.331
180.717
175.269
169.978
164.836
159.835
154.969
150.229
145.611
141.108
136.714
132.426
128.237
124.143
120.14
116.223
112.387
108.625
104.931
101.297
97.7098
94.1536
90.6006
87.0276
83.4515
79.8834
76.3287
72.7874
69.2553
65.7246
62.1855
58.6271
55.0403
51.4195
47.7653
44.0883
40.4125
36.786
33.2773
29.9625
26.9114
24.1766
21.7838
19.7451
18.0156
16.6099
15.4603
14.5359
13.8017
13.2831
12.8996
12.5906
12.4825
12.4143
12.4678
307.308
137.389
109.314
100.109
95.8937
93.3878
91.6501
90.4608
89.9039
89.9365
90.6514
92.0424
94.0912
96.7498
99.9726
103.711
107.933
112.607
117.719
123.253
129.205
135.567
142.336
149.51
157.075
165.017
173.322
181.975
190.958
200.253
209.842
219.708
229.845
240.222
250.79
261.515
272.363
283.278
294.241
305.225
316.198
327.134
338.004
348.784
359.454
370.001
380.409
390.674
400.791
410.767
420.609
430.337
439.973
449.552
459.112
468.705
478.385
488.222
498.288
508.667
519.442
530.704
542.529
554.987
568.12
581.952
596.473
611.631
627.329
643.416
659.687
675.88
691.686
706.751
720.694
733.125
743.664
751.975
757.73
760.876
761.179
758.679
753.399
745.477
735.12
722.583
708.151
692.123
674.801
656.471
637.407
617.87
598.097
578.289
558.617
539.222
520.221
501.702
483.731
466.354
449.601
433.488
418.019
403.191
388.992
375.404
362.406
349.975
338.086
326.713
315.832
305.415
295.437
285.875
276.705
267.903
259.45
251.323
243.505
235.977
228.722
221.724
214.968
208.441
202.127
196.016
190.096
184.355
178.784
173.374
168.113
162.996
158.013
153.156
148.42
143.798
139.283
134.87
130.552
126.326
122.184
118.121
114.13
110.202
106.329
102.497
98.6865
94.8696
91.054
87.2484
83.459
79.689
75.9378
72.2014
68.4731
64.7446
61.0072
57.2539
53.4811
49.6914
45.8965
42.1215
38.4145
34.8405
31.4701
28.3672
25.5797
23.1304
21.029
19.2389
17.7581
16.5336
15.5332
14.7131
14.1198
13.6414
13.2025
13.1934
12.9826
12.8942
286.495
127.48
100.668
92.0028
88.3356
86.5213
85.5682
85.187
85.2869
85.9065
87.0672
88.7814
91.0469
93.8391
97.1344
100.903
105.125
109.781
114.863
120.363
126.28
132.612
139.358
146.518
154.088
162.063
170.44
179.208
188.343
197.827
207.636
217.747
228.127
238.758
249.616
260.673
271.903
283.323
294.863
306.483
318.145
329.821
341.478
353.072
364.586
376.003
387.302
398.466
409.484
420.356
431.08
441.669
452.138
462.514
472.829
483.131
493.47
503.915
514.539
525.431
536.685
548.406
560.692
573.633
587.299
601.739
616.969
632.963
649.646
666.883
684.473
702.152
719.593
736.416
752.195
766.484
778.828
788.83
796.159
800.58
801.836
800.138
795.357
787.645
777.231
764.389
749.429
732.673
714.452
695.089
674.883
654.117
633.053
611.913
590.889
570.138
549.794
529.953
510.696
492.071
474.117
456.85
440.282
424.407
409.215
394.687
380.803
367.535
354.858
342.745
331.168
320.098
309.508
299.371
289.662
280.355
271.427
262.856
254.62
246.699
239.074
231.728
224.645
217.808
211.203
204.816
198.633
192.644
186.835
181.196
175.717
170.387
165.197
160.138
155.203
150.383
145.671
141.061
136.546
132.118
127.772
123.501
119.296
115.146
111.042
106.97
102.904
98.8509
94.8139
90.7978
86.8062
82.8402
78.8987
74.9779
71.0723
67.1748
63.2788
59.3792
55.4741
51.5679
47.6739
43.8189
40.0517
36.4333
33.0282
29.894
27.073
24.5851
22.4358
20.5964
19.0525
17.7606
16.6913
15.7911
15.0977
14.5345
14.0113
13.9708
13.6962
13.7346
261.578
116.787
91.9609
84.0551
80.9847
79.8043
79.5301
79.8031
80.5158
81.6463
83.2076
85.2084
87.6572
90.547
93.8725
97.6207
101.786
106.361
111.345
116.735
122.536
128.75
135.38
142.428
149.896
157.782
166.083
174.791
183.897
193.39
203.258
213.481
224.029
234.877
246.001
257.369
268.951
280.7
292.605
304.638
316.77
328.976
341.245
353.558
365.861
378.121
390.313
402.386
414.337
426.156
437.832
449.367
460.769
472.056
483.25
494.389
505.515
516.689
527.978
539.469
551.259
563.46
576.181
589.532
603.599
618.455
634.137
650.646
667.927
685.866
704.279
722.91
741.436
759.465
776.537
792.19
805.863
817.142
825.682
831.217
833.258
832.309
828.066
820.683
810.401
797.507
782.317
765.165
746.395
726.375
705.417
683.816
661.846
639.747
617.726
595.957
574.582
553.716
533.442
513.821
494.893
476.686
459.21
442.466
426.445
411.13
396.497
382.521
369.176
356.434
344.267
332.642
321.532
310.91
300.747
291.017
281.694
272.753
264.171
255.926
247.999
240.37
233.021
225.935
219.096
212.488
206.098
199.911
193.915
188.097
182.446
176.949
171.595
166.375
161.28
156.299
151.426
146.651
141.967
137.367
132.842
128.382
123.981
119.624
115.3
110.995
106.713
102.456
98.2259
94.0256
89.8566
85.7189
81.6114
77.5307
73.4721
69.4304
65.4003
61.3785
57.3652
53.3663
49.397
45.4871
41.6845
38.0458
34.6295
31.4861
28.652
26.1433
23.9615
22.0831
20.4873
19.1362
18.0026
17.0344
16.2446
15.5976
14.9873
14.8354
14.6148
14.5481
232.909
105.944
83.6623
76.7073
74.2371
73.5902
73.8498
74.645
75.8433
77.3889
79.2774
81.5107
84.1001
87.0484
90.3628
94.0434
98.0965
102.524
107.333
112.53
118.123
124.118
130.524
137.346
144.589
152.256
160.347
168.859
177.788
187.127
196.866
206.991
217.485
228.33
239.508
251.001
262.78
274.812
287.071
299.531
312.161
324.922
337.757
350.652
363.588
376.542
389.489
402.47
415.409
428.267
440.997
453.603
466.086
478.453
490.713
502.888
515.008
527.118
539.272
551.544
564.024
576.82
590.045
603.811
618.218
633.345
649.246
665.934
683.376
701.474
720.067
738.919
757.739
776.176
793.658
809.629
823.563
835.216
844.276
850.451
852.932
852.49
848.681
841.718
831.813
819.229
804.251
787.215
768.38
748.184
726.956
705.012
682.626
660.049
637.493
615.148
593.161
571.661
550.735
530.454
510.865
492.004
473.886
456.518
439.893
423.996
408.804
394.294
380.443
367.225
354.608
342.558
331.049
320.058
309.553
299.505
289.887
280.673
271.837
263.356
255.209
247.376
239.837
232.574
225.57
218.809
212.273
205.95
199.826
193.886
188.116
182.503
177.035
171.701
166.489
161.389
156.392
151.489
146.67
141.925
137.248
132.624
128.048
123.496
118.976
114.488
110.032
105.609
101.22
96.8665
92.5496
88.2691
84.0239
79.8114
75.6281
71.4702
67.3341
63.2183
59.1247
55.0611
51.0456
47.1103
43.3007
39.669
36.2666
33.1372
30.3105
27.7987
25.5995
23.6925
22.0545
20.6515
19.4573
18.4279
17.5559
16.824
16.1549
15.699
15.2821
15.3433
200.11
96.3743
76.1735
70.067
68.1252
67.9219
68.579
69.7857
71.3629
73.2377
75.3889
77.8075
80.5019
83.4766
86.7458
90.3171
94.2066
98.4237
102.985
107.902
113.19
118.861
124.928
131.402
138.292
145.605
153.348
161.521
170.127
179.163
188.626
198.507
208.797
219.486
230.56
242.003
253.798
265.921
278.353
291.069
304.045
317.257
330.678
344.275
358.016
371.869
385.795
399.732
413.67
427.584
441.511
455.374
469.157
482.856
496.457
509.967
523.386
536.743
550.063
563.404
576.825
590.426
604.302
618.562
633.289
648.569
664.445
680.943
698.028
715.627
733.592
751.728
769.771
787.058
803.246
818.057
831.149
842.289
851.114
857.328
859.84
859.553
855.935
849.278
839.728
827.52
812.929
796.233
777.642
757.803
736.94
715.304
693.155
670.734
648.263
625.927
603.888
582.273
561.185
540.695
520.864
501.734
483.329
465.662
448.733
432.529
417.021
402.207
388.067
374.575
361.7
349.388
337.642
326.435
315.737
305.513
295.731
286.361
277.38
268.766
260.497
252.553
244.913
237.557
230.468
223.628
217.019
210.628
204.44
198.44
192.611
186.939
181.409
176.009
170.727
165.55
160.469
155.473
150.551
145.692
140.89
136.117
131.385
126.688
122.028
117.404
112.816
108.265
103.752
99.2784
94.8452
90.4525
86.0997
81.7856
77.5078
73.264
69.0526
64.8735
60.7307
56.6348
52.6065
48.6785
44.8933
41.2976
37.9358
34.8439
32.0451
29.5473
27.3452
25.4198
23.7478
22.2987
21.0476
19.9583
19.0152
18.201
17.4743
16.869
16.327
16.2103
164.735
86.4298
69.3399
64.2893
62.9091
63.0979
64.0639
65.5898
67.4582
69.5888
71.9475
74.5151
77.2923
80.2812
83.4964
86.9494
90.6609
94.6468
98.9302
103.529
108.465
113.756
119.422
125.478
131.941
138.822
146.135
153.886
162.083
170.729
179.828
189.378
199.379
209.825
220.711
232.028
243.768
255.917
268.461
281.385
294.671
308.299
322.247
336.489
350.992
365.724
380.647
395.725
410.931
426.245
441.532
456.842
472.146
487.435
502.664
517.809
532.843
547.761
562.556
577.252
591.871
606.482
621.148
635.947
650.952
666.198
681.737
697.548
713.623
729.86
746.171
762.371
777.851
792.489
806.407
819.138
830.184
839.52
846.888
852.104
854.019
853.342
849.608
843.165
834.092
822.536
808.723
792.899
775.285
756.252
736.105
715.123
693.571
671.684
649.681
627.748
606.05
584.715
563.851
543.532
523.828
504.784
486.434
468.792
451.867
435.647
420.107
405.251
391.067
377.528
364.604
352.2
340.399
329.164
318.447
308.21
298.423
289.055
280.082
271.48
263.228
255.303
247.686
240.352
233.289
226.478
219.892
213.526
207.36
201.378
195.564
189.901
184.372
178.966
173.67
168.467
163.348
158.304
153.317
148.376
143.482
138.626
133.809
129.028
124.284
119.575
114.903
110.269
105.675
101.121
96.6107
92.1436
87.7209
83.3422
79.007
74.7145
70.4648
66.2601
62.1067
58.0181
54.0169
50.1346
46.4101
42.8837
39.5925
36.5647
33.8169
31.3523
29.1634
27.2319
25.536
24.0484
22.7463
21.5997
20.5926
19.7024
18.9163
18.2051
17.6095
17.0701
132.069
76.3329
63.1348
59.3618
58.6189
59.1714
60.4786
62.2845
64.4128
66.7792
69.3409
72.0689
74.9548
77.9962
81.2045
84.5926
88.1827
91.9959
96.0589
100.396
105.034
109.997
115.311
120.997
127.078
133.572
140.497
147.868
155.697
163.994
172.77
182.03
191.781
202.024
212.763
223.998
235.727
247.948
260.652
273.835
287.485
301.59
316.131
331.101
346.452
362.156
378.175
394.468
410.968
427.614
444.413
461.347
478.369
495.413
512.437
529.37
546.167
562.769
579.149
595.263
611.116
626.7
642.057
657.215
672.185
687.008
701.641
716.103
730.3
744.224
757.728
770.346
782.142
793.284
803.416
812.406
820.095
826.385
831.202
834.384
835.086
833.382
829.214