/*--------------------------------*- C++ -*----------------------------------*\
| =========                 |                                                 |
| \\      /  F ield         | OpenFOAM: The Open Source CFD Toolbox           |
|  \\    /   O peration     | Version:  2212                                  |
|   \\  /    A nd           | Website:  www.openfoam.com                      |
|    \\/     M anipulation  |                                                 |
\*---------------------------------------------------------------------------*/
FoamFile
{
    version     2.0;
    format      ascii;
    arch        "LSB;label=32;scalar=64";
    class       volScalarField;
    location    "50";
    object      k;
}
// * * * * * * * * * * * * * * * * * * * * * * * * * * * * * * * * * * * * * //

dimensions      [0 2 -2 0 0 0 0];

internalField   nonuniform List<scalar> 
12225
(
0.571555
0.987593
1.28117
1.45528
1.54127
1.57627
1.57412
1.56508
1.54407
1.51952
1.49524
1.47123
1.44984
1.42862
1.41149
1.39222
1.38016
1.35954
0.43842
0.496861
0.522132
0.535072
0.543328
0.547979
0.551137
0.553445
0.557805
0.561628
0.568947
0.574942
0.584755
0.594054
0.604884
0.617103
0.628704
0.64456
0.387562
0.417496
0.424176
0.421526
0.415281
0.404705
0.394109
0.382553
0.372291
0.362238
0.353655
0.346164
0.339446
0.33486
0.32992
0.327923
0.324703
0.324865
0.376176
0.384826
0.388114
0.387394
0.385489
0.380944
0.37586
0.369377
0.363237
0.356348
0.350114
0.343539
0.337662
0.331711
0.32644
0.321192
0.31665
0.312086
0.374177
0.375379
0.37639
0.375906
0.37481
0.372372
0.369676
0.366002
0.362502
0.358301
0.354496
0.350123
0.34634
0.341995
0.338432
0.33421
0.33097
0.32691
0.373739
0.372542
0.372
0.371054
0.369937
0.368177
0.366344
0.363935
0.361612
0.358843
0.356293
0.353353
0.350756
0.347766
0.345235
0.342271
0.339868
0.336981
0.373774
0.371718
0.37024
0.368803
0.367477
0.365886
0.364328
0.36248
0.360685
0.358649
0.35672
0.354582
0.352614
0.350442
0.348499
0.34634
0.344467
0.342347
0.373824
0.371555
0.369629
0.367838
0.366251
0.364627
0.363096
0.361464
0.359888
0.358211
0.3566
0.354896
0.35328
0.351578
0.349991
0.348313
0.346782
0.345139
0.373837
0.371549
0.369463
0.367497
0.365717
0.363999
0.362401
0.360814
0.359299
0.357774
0.356308
0.354826
0.353402
0.35196
0.350586
0.349188
0.347876
0.346523
0.373835
0.371558
0.369428
0.367402
0.365522
0.363732
0.36206
0.360452
0.358928
0.357446
0.356029
0.354642
0.35331
0.351998
0.350742
0.349499
0.348316
0.347137
0.373832
0.371561
0.369419
0.36738
0.365461
0.363637
0.361919
0.360282
0.358732
0.357248
0.355835
0.354475
0.353176
0.351919
0.350717
0.34955
0.348435
0.34735
0.373829
0.37156
0.369413
0.367373
0.365443
0.363608
0.36187
0.360218
0.358651
0.357157
0.355736
0.354377
0.353083
0.351841
0.350656
0.349517
0.348429
0.347384
0.373828
0.371559
0.369409
0.367368
0.365433
0.363595
0.36185
0.36019
0.358613
0.357112
0.355683
0.354322
0.353024
0.351785
0.350604
0.349475
0.348398
0.347369
0.373827
0.371557
0.369405
0.367363
0.365426
0.363585
0.361838
0.360175
0.358594
0.357089
0.355656
0.354291
0.352991
0.351751
0.35057
0.349443
0.34837
0.347346
0.373826
0.371555
0.369401
0.367358
0.36542
0.363578
0.361828
0.360165
0.358583
0.357076
0.355642
0.354276
0.352975
0.351735
0.350555
0.34943
0.348358
0.347337
0.373826
0.371554
0.369398
0.367354
0.365414
0.363572
0.361821
0.360157
0.358574
0.357069
0.355634
0.35427
0.352969
0.351732
0.350552
0.349429
0.348359
0.347341
0.373825
0.371552
0.369396
0.36735
0.36541
0.363566
0.361816
0.360152
0.35857
0.357064
0.355631
0.354268
0.35297
0.351734
0.350557
0.349436
0.348369
0.347353
0.373825
0.371551
0.369394
0.367348
0.365407
0.363564
0.361813
0.36015
0.358568
0.357064
0.355633
0.354272
0.352976
0.351742
0.350568
0.34945
0.348385
0.347371
0.373825
0.371551
0.369394
0.367347
0.365407
0.363564
0.361814
0.360152
0.358572
0.35707
0.355641
0.354282
0.352989
0.351758
0.350586
0.349471
0.348408
0.347396
0.373825
0.371551
0.369394
0.367349
0.365408
0.363568
0.361819
0.36016
0.358581
0.357082
0.355655
0.354299
0.353008
0.35178
0.350611
0.349498
0.348437
0.347427
0.373825
0.371551
0.369396
0.367351
0.365413
0.363573
0.361828
0.360169
0.358595
0.357097
0.355675
0.354321
0.353034
0.351808
0.350643
0.349532
0.348474
0.347466
0.373826
0.371552
0.369398
0.367356
0.365419
0.363583
0.361841
0.360189
0.358619
0.357129
0.355713
0.354366
0.353086
0.351867
0.350706
0.3496
0.348545
0.347539
0.373826
0.371554
0.369401
0.367364
0.365436
0.363614
0.36189
0.36026
0.358712
0.357245
0.355846
0.354517
0.353245
0.352034
0.350871
0.349762
0.348695
0.347676
0.373827
0.371553
0.369413
0.36742
0.365549
0.363805
0.362152
0.360597
0.359101
0.357676
0.356293
0.354965
0.35367
0.352422
0.351204
0.350028
0.348881
0.347775
0.37382
0.371561
0.369582
0.367847
0.366228
0.364725
0.363232
0.361782
0.360293
0.358835
0.357336
0.355873
0.354383
0.352937
0.351475
0.350065
0.348653
0.347297
0.373768
0.371942
0.370915
0.369976
0.368915
0.367778
0.36634
0.364777
0.362963
0.36113
0.359113
0.357154
0.355054
0.353063
0.35097
0.349008
0.346974
0.345077
0.374095
0.375202
0.37726
0.377557
0.377089
0.375791
0.373493
0.370867
0.367811
0.364718
0.361351
0.358104
0.354648
0.351433
0.348012
0.344916
0.341644
0.338701
0.377686
0.394085
0.402978
0.402392
0.400371
0.396034
0.390779
0.385113
0.379263
0.37321
0.367374
0.361387
0.355864
0.350281
0.345246
0.340235
0.335868
0.331351
0.405819
0.438923
0.451149
0.455729
0.458982
0.462015
0.464636
0.466738
0.46858
0.470014
0.471446
0.472659
0.47402
0.475263
0.477075
0.478419
0.480944
0.482164
0.478957
0.685009
0.865087
0.990978
1.0944
1.17633
1.23987
1.28466
1.31638
1.33448
1.34576
1.34754
1.34587
1.34164
1.33421
1.32506
1.31523
1.30482
0.0331765
0.0600521
0.0855031
0.103406
0.115366
0.122464
0.126051
0.125911
0.124165
0.120838
0.116471
0.11169
0.106865
0.105531
0.107364
0.112812
0.12157
0.130278
0.139298
0.149347
0.164492
0.190104
0.227205
0.269367
0.315299
0.363317
0.409453
0.453254
0.495189
0.534733
0.572436
0.608315
0.642557
0.675409
0.706848
0.737232
0.766377
0.794728
0.821976
0.848637
0.874311
0.899569
0.923931
0.947977
0.971146
0.994023
1.01599
1.03763
1.05833
1.07876
1.0983
1.11768
1.1362
1.1546
1.1721
1.189
1.20451
1.21912
1.23279
1.24657
1.25975
1.27313
1.28522
1.29672
1.30738
1.31896
1.32826
1.33806
1.34759
1.34853
1.34462
1.35261
1.35112
1.33824
1.34455
1.34013
1.31815
1.32344
1.31362
1.28228
1.28279
1.24643
1.24729
1.2404
1.20341
1.20129
1.15971
1.15403
1.14192
1.10008
1.08776
1.05196
1.03077
1.01185
0.990812
0.970844
0.950633
0.93075
0.911023
0.891584
0.872381
0.853479
0.834883
0.816624
0.798697
0.780719
0.762622
0.745113
0.72808
0.711472
0.695325
0.679576
0.664221
0.649218
0.634614
0.620405
0.606674
0.593988
0.584026
0.575502
0.56731
0.55925
0.551314
0.543477
0.535757
0.528116
0.520575
0.513126
0.50577
0.49848
0.491314
0.48413
0.477223
0.470224
0.462865
0.455417
0.448038
0.440813
0.433788
0.426956
0.420259
0.413606
0.407015
0.400549
0.394273
0.388226
0.382399
0.376765
0.37133
0.366101
0.361062
0.356144
0.351265
0.346315
0.341158
0.335588
0.329353
0.322065
0.313289
0.302506
0.289433
0.274016
0.256891
0.238998
0.22179
0.206429
0.193809
0.183593
0.175772
0.169706
0.165504
0.161766
0.160933
0.159932
0.159364
0.158973
0.158567
0.15717
0.156796
0.15235
0.0988478
0.146958
0.206507
0.239579
0.255888
0.262624
0.263911
0.262653
0.258906
0.25236
0.245859
0.244129
0.250224
0.271615
0.309438
0.353659
0.397775
0.439893
0.481532
0.524899
0.571304
0.619613
0.668465
0.715416
0.760995
0.805408
0.849194
0.892934
0.937079
0.98116
1.02545
1.0698
1.11415
1.1584
1.2024
1.24612
1.28941
1.33229
1.37465
1.41657
1.45794
1.49891
1.53936
1.57945
1.61907
1.65836
1.69721
1.73576
1.77387
1.81172
1.84913
1.88626
1.92288
1.95916
1.99484
2.03003
2.06442
2.09812
2.13084
2.1627
2.19335
2.22292
2.25126
2.27884
2.30533
2.33069
2.35446
2.37656
2.39631
2.41303
2.42676
2.4407
2.45237
2.46204
2.46675
2.46747
2.45971
2.45855
2.45067
2.43971
2.42787
2.41074
2.39401
2.3738
2.34879
2.325
2.29548
2.26749
2.23681
2.2005
2.16646
2.1284
2.09276
2.05627
2.01971
1.98324
1.9469
1.91086
1.87517
1.83995
1.80522
1.77106
1.73747
1.70455
1.67227
1.64067
1.60974
1.57955
1.55003
1.52118
1.49295
1.46534
1.43827
1.41173
1.38568
1.36014
1.33516
1.31091
1.28746
1.26452
1.24187
1.21948
1.19738
1.17559
1.1541
1.13292
1.11204
1.09147
1.07119
1.05119
1.03147
1.01202
0.992824
0.973387
0.953824
0.934408
0.915271
0.896544
0.878253
0.860394
0.842873
0.82548
0.808307
0.79151
0.775197
0.759424
0.744161
0.729342
0.714971
0.701044
0.687502
0.674199
0.660926
0.647447
0.633502
0.618754
0.602782
0.58502
0.564834
0.54156
0.5147
0.484123
0.450373
0.414707
0.379017
0.345256
0.314994
0.289021
0.267645
0.250329
0.237015
0.226446
0.21832
0.211261
0.210439
0.210061
0.209409
0.207466
0.208874
0.204189
0.167345
0.250834
0.316712
0.349197
0.36514
0.372706
0.376889
0.38123
0.388763
0.402367
0.425445
0.460812
0.509284
0.567793
0.629521
0.687055
0.736617
0.777708
0.813419
0.847533
0.883415
0.922699
0.966221
1.0135
1.06434
1.11812
1.17446
1.23268
1.2922
1.35266
1.41353
1.47427
1.53435
1.59339
1.65113
1.70744
1.7622
1.81542
1.8671
1.91733
1.96615
2.01371
2.06005
2.10533
2.1496
2.19302
2.23563
2.27758
2.3189
2.35972
2.40006
2.44004
2.47964
2.51898
2.55803
2.59685
2.63537
2.67366
2.71162
2.74928
2.78646
2.82308
2.8589
2.89378
2.92731
2.95929
2.98952
3.01766
3.04341
3.06651
3.08691
3.10473
3.11921
3.12982
3.13667
3.13957
3.1423
3.13843
3.12995
3.11741
3.10086
3.08011
3.05611
3.02863
2.99746
2.96403
2.92728
2.88856
2.84781
2.80457
2.76069
2.71522
2.66984
2.62383
2.57768
2.53153
2.48558
2.43997
2.39483
2.35025
2.30632
2.2631
2.22063
2.17897
2.13812
2.09811
2.05895
2.02066
1.98318
1.94649
1.91055
1.87534
1.84079
1.80689
1.77361
1.74094
1.70892
1.67761
1.64702
1.61701
1.58745
1.5583
1.52953
1.50116
1.47317
1.44558
1.41838
1.39156
1.36511
1.33905
1.31336
1.28802
1.263
1.2382
1.21362
1.18933
1.16539
1.14187
1.11883
1.09626
1.07413
1.05195
1.02999
1.00848
0.987537
0.967233
0.947533
0.92828
0.909543
0.891347
0.873647
0.856286
0.839008
0.821563
0.803683
0.785001
0.765036
0.74314
0.718569
0.690526
0.658301
0.621513
0.580437
0.536244
0.490895
0.446731
0.405865
0.369734
0.339148
0.313847
0.294019
0.277656
0.265397
0.254949
0.249936
0.248934
0.248192
0.245539
0.247103
0.242664
0.219344
0.363469
0.43655
0.471913
0.489057
0.497877
0.505118
0.515869
0.534314
0.563582
0.605276
0.65816
0.71759
0.776404
0.828292
0.870667
0.905555
0.937685
0.971994
1.01148
1.0572
1.10905
1.16639
1.22812
1.29347
1.36154
1.43148
1.50248
1.57395
1.64523
1.71577
1.78514
1.85298
1.91906
1.98323
2.04542
2.10561
2.16385
2.22019
2.27474
2.3276
2.37892
2.4288
2.47739
2.52481
2.57123
2.61673
2.66149
2.70558
2.74916
2.79231
2.83515
2.87774
2.92018
2.9625
3.00478
3.047
3.0892
3.13133
3.17333
3.21507
3.25641
3.29713
3.33703
3.37582
3.41323
3.44899
3.48277
3.5142
3.54302
3.56891
3.59156
3.61052
3.62521
3.63522
3.64082
3.64605
3.64422
3.63658
3.6237
3.60579
3.58309
3.55596
3.52462
3.48926
3.45046
3.40832
3.36343
3.31618
3.26677
3.21593
3.1638
3.11102
3.05766
3.00403
2.95037
2.89691
2.84381
2.79125
2.73933
2.68815
2.63779
2.58831
2.53974
2.49212
2.44545
2.39975
2.35499
2.31116
2.26821
2.22611
2.18483
2.14434
2.10461
2.06562
2.02736
1.98983
1.95304
1.91698
1.88155
1.84669
1.81232
1.77844
1.74504
1.7121
1.67963
1.64762
1.61606
1.58494
1.55428
1.52406
1.49428
1.46489
1.43588
1.40724
1.379
1.35118
1.32381
1.29695
1.2706
1.24476
1.21929
1.19424
1.16971
1.14579
1.12253
1.09991
1.07755
1.05572
1.03446
1.01376
0.993429
0.973167
0.952757
0.931952
0.910394
0.887602
0.862904
0.835523
0.804609
0.769298
0.72895
0.683549
0.634033
0.582298
0.530838
0.482149
0.438166
0.400167
0.368248
0.342707
0.321393
0.305076
0.291877
0.284283
0.279884
0.279576
0.276777
0.278992
0.274694
0.261987
0.468033
0.559632
0.604865
0.627084
0.638572
0.64785
0.661089
0.682581
0.714045
0.754426
0.800179
0.846751
0.89032
0.929812
0.967048
1.00529
1.04744
1.09528
1.14935
1.20945
1.27471
1.34419
1.41692
1.49207
1.56881
1.64648
1.72444
1.80217
1.87918
1.95508
2.02952
2.10227
2.17313
2.242
2.30881
2.37354
2.43624
2.49694
2.55575
2.61274
2.66804
2.72176
2.77404
2.82502
2.87484
2.92362
2.97154
3.01871
3.06529
3.11138
3.15714
3.20266
3.24806
3.29341
3.33881
3.38429
3.4299
3.47562
3.52142
3.5672
3.61284
3.65817
3.70297
3.74697
3.78991
3.83142
3.87116
3.9087
3.94363
3.97552
4.0039
4.02827
4.04812
4.06286
4.07164
4.07809
4.08067
4.07518
4.06329
4.04544
4.02195
3.99311
3.95924
3.92069
3.87791
3.83132
3.78142
3.72868
3.67358
3.6166
3.55817
3.49876
3.43866
3.3782
3.31766
3.25731
3.19735
3.13796
3.07929
3.02146
2.96453
2.90861
2.8537
2.79986
2.74706
2.69534
2.64466
2.59501
2.54635
2.49868
2.45193
2.40611
2.36117
2.31709
2.27383
2.23139
2.18976
2.1489
2.10875
2.06924
2.03033
1.992
1.95422
1.91698
1.88027
1.84409
1.80843
1.77328
1.73865
1.70452
1.67089
1.63774
1.60506
1.57284
1.54111
1.50988
1.47916
1.44898
1.41937
1.3903
1.36175
1.33372
1.30627
1.27945
1.25332
1.22789
1.20305
1.17882
1.15519
1.13209
1.10937
1.08658
1.06361
1.04026
1.01617
0.990913
0.963804
0.934083
0.900931
0.863407
0.820615
0.772253
0.718972
0.662531
0.605482
0.550582
0.500152
0.45587
0.418142
0.387415
0.361466
0.341427
0.32618
0.314896
0.307428
0.306829
0.304303
0.306635
0.302204
0.29773
0.564327
0.67946
0.736908
0.764697
0.77776
0.785417
0.79448
0.809425
0.831922
0.861213
0.895077
0.931508
0.969714
1.01012
1.05388
1.10246
1.15663
1.21654
1.28174
1.35152
1.42503
1.5015
1.58021
1.66054
1.7419
1.8238
1.90577
1.98738
2.06827
2.1481
2.22661
2.30356
2.37878
2.45213
2.52353
2.59293
2.66033
2.72572
2.78918
2.85073
2.91049
2.96853
3.02499
3.07996
3.13359
3.18602
3.2374
3.28785
3.33757
3.38667
3.43532
3.48366
3.53184
3.57997
3.62819
3.67659
3.72526
3.77423
3.82352
3.87308
3.92284
3.97266
4.02235
4.07165
4.12027
4.16782
4.21389
4.25801
4.29966
4.33828
4.37329
4.4041
4.43012
4.4508
4.46568
4.47428
4.47995
4.47757
4.46776
4.45096
4.42754
4.39782
4.3622
4.32108
4.27498
4.22439
4.16989
4.11207
4.05142
3.98853
3.92391
3.85806
3.79138
3.72424
3.65698
3.58989
3.52322
3.45718
3.39194
3.32761
3.26432
3.20211
3.14106
3.08117
3.02246
2.96494
2.9086
2.85342
2.79938
2.74644
2.69458
2.64376
2.59395
2.5451
2.4972
2.45021
2.40411
2.35884
2.31436
2.27062
2.22757
2.18517
2.14341
2.10227
2.06173
2.02178
1.98242
1.94363
1.90542
1.86777
1.83068
1.79413
1.75813
1.72267
1.68776
1.65341
1.61963
1.58644
1.55386
1.52187
1.49048
1.45969
1.42952
1.39999
1.37116
1.34305
1.31562
1.28887
1.26274
1.23713
1.2119
1.18675
1.16146
1.13576
1.10934
1.08176
1.05237
1.02045
0.985313
0.946028
0.901413
0.850897
0.794807
0.734749
0.673294
0.613373
0.55761
0.507969
0.465143
0.429755
0.399529
0.376304
0.358769
0.34396
0.335084
0.330393
0.331199
0.331591
0.327343
0.322876
0.642765
0.779085
0.848422
0.881774
0.89554
0.900872
0.904455
0.911691
0.925523
0.946791
0.974917
1.00921
1.0491
1.09459
1.14571
1.20249
1.26461
1.33158
1.40274
1.47745
1.55505
1.63499
1.71674
1.79987
1.88393
1.96853
2.05332
2.13795
2.2221
2.30548
2.38782
2.46889
2.54848
2.62643
2.70262
2.77695
2.84936
2.91982
2.98832
3.05487
3.11952
3.18233
3.24337
3.30274
3.36056
3.41694
3.47204
3.52599
3.57896
3.63111
3.68263
3.73367
3.78444
3.83509
3.88582
3.93676
3.98807
4.03986
4.0922
4.14514
4.19865
4.25263
4.30695
4.36136
4.41557
4.46919
4.52176
4.57274
4.62152
4.66744
4.70981
4.7479
4.78098
4.80838
4.82949
4.84281
4.8512
4.85369
4.84695
4.83209
4.80952
4.77963
4.74285
4.69966
4.65063
4.59636
4.53751
4.47472
4.40865
4.3399
4.26911
4.19684
4.12359
4.04978
3.97581
3.90201
3.82866
3.756
3.68423
3.61348
3.54387
3.47548
3.40839
3.34261
3.27818
3.21508
3.15332
3.09286
3.03369
2.97577
2.91906
2.86352
2.80911
2.7558
2.70353
2.65228
2.60201
2.55266
2.50419
2.45655
2.40968
2.36356
2.31816
2.27345
2.22941
2.18604
2.14331
2.10122
2.05976
2.01892
1.97869
1.93906
1.90004
1.86162
1.82381
1.7866
1.75001
1.71406
1.67874
1.64408
1.61006
1.57669
1.54398
1.51194
1.48058
1.44994
1.42
1.39075
1.36212
1.33399
1.30621
1.27854
1.25072
1.22247
1.19345
1.16327
1.13141
1.09729
1.06029
1.0196
0.973606
0.921524
0.863287
0.800387
0.735424
0.671442
0.611292
0.557119
0.50993
0.470393
0.4365
0.41023
0.390047
0.372564
0.3608
0.354518
0.354563
0.354492
0.352629
0.335836
0.693555
0.84529
0.924752
0.964446
0.981274
0.986697
0.98875
0.992974
1.00355
1.02246
1.04998
1.08566
1.12874
1.17855
1.23443
1.29575
1.36186
1.43216
1.50604
1.58297
1.66248
1.74414
1.82757
1.91243
1.99839
2.08514
2.17235
2.25974
2.34699
2.43381
2.51995
2.60515
2.68918
2.77184
2.85297
2.93242
3.01008
3.08585
3.15969
3.23154
3.30142
3.36931
3.43528
3.49937
3.56168
3.62229
3.68134
3.73895
3.79531
3.85056
3.90491
3.95856
4.01172
4.06462
4.11748
4.17052
4.22396
4.27799
4.33277
4.38843
4.44502
4.50253
4.56088
4.61987
4.67923
4.73859
4.79746
4.85526
4.9113
4.96483
5.01502
5.06099
5.10187
5.13681
5.16499
5.18579
5.19806
5.20475
5.2019
5.18982
5.1689
5.13954
5.1022
5.05743
5.00588
4.94825
4.88528
4.81773
4.74633
4.67181
4.59489
4.51625
4.43644
4.35598
4.27531
4.19482
4.11482
4.0356
3.95736
3.88029
3.80452
3.73014
3.65722
3.58579
3.51588
3.44747
3.38055
3.31511
3.2511
3.18848
3.12721
3.06726
3.00856
2.95107
2.89476
2.83956
2.78543
2.73233
2.68019
2.62898
2.57864
2.52913
2.48042
2.43248
2.38529
2.33882
2.29307
2.24801
2.20363
2.15993
2.11689
2.07451
2.03277
1.99169
1.95125
1.91146
1.87232
1.83385
1.79605
1.75893
1.72249
1.68673
1.65166
1.61727
1.58357
1.55056
1.51824
1.48657
1.45549
1.42488
1.39457
1.36434
1.33393
1.30305
1.27137
1.2385
1.20399
1.16735
1.12805
1.08545
1.03845
0.985351
0.92545
0.86029
0.792528
0.725297
0.661584
0.603672
0.552836
0.50967
0.472825
0.443371
0.420316
0.400855
0.385091
0.380442
0.375352
0.375381
0.370681
0.342826
0.716457
0.87536
0.962013
1.00859
1.03139
1.04165
1.04691
1.05349
1.06586
1.08648
1.11598
1.15401
1.19974
1.25224
1.31061
1.37408
1.44194
1.51364
1.58864
1.66655
1.74698
1.82962
1.91417
2.00037
2.08793
2.17658
2.26604
2.35603
2.44626
2.53645
2.62631
2.71559
2.80403
2.8914
2.97749
3.0621
3.14509
3.22629
3.30561
3.38295
3.45825
3.53147
3.60262
3.67169
3.73875
3.80384
3.86707
3.92855
3.98844
4.04688
4.10411
4.1603
4.21572
4.27062
4.32527
4.37995
4.43496
4.49056
4.54703
4.60456
4.66335
4.72346
4.7849
4.84758
4.91127
4.97564
5.04021
5.10439
5.16743
5.22848
5.2866
5.34076
5.38992
5.43304
5.46913
5.49736
5.51584
5.52675
5.52915
5.52077
5.50233
5.47426
5.43706
5.39133
5.33778
5.27722
5.21049
5.13847
5.062
4.98191
4.89904
4.81415
4.72791
4.64091
4.55366
4.46662
4.38015
4.29459
4.21014
4.12704
4.0454
3.96534
3.88691
3.81017
3.7351
3.66173
3.59
3.51991
3.4514
3.38445
3.31898
3.25495
3.19231
3.13101
3.07098
3.01218
2.95456
2.89806
2.84263
2.78821
2.73475
2.68221
2.63056
2.57976
2.52977
2.48058
2.43216
2.38449
2.33756
2.29135
2.24585
2.20105
2.15693
2.1135
2.07074
2.02867
1.98728
1.94656
1.90654
1.86721
1.82858
1.79064
1.7534
1.71685
1.68097
1.64576
1.6112
1.57723
1.5438
1.51078
1.478
1.44524
1.41226
1.37877
1.34442
1.30887
1.27169
1.23245
1.1907
1.14588
1.09722
1.04332
0.982064
0.915062
0.845071
0.775286
0.708755
0.647866
0.59403
0.54785
0.508582
0.476407
0.450583
0.429298
0.410754
0.404033
0.399077
0.394478
0.389287
0.349281
0.713077
0.872394
0.962696
1.01628
1.04769
1.06629
1.07906
1.09211
1.10971
1.1344
1.16705
1.2076
1.25533
1.30944
1.36904
1.43344
1.50198
1.57419
1.64963
1.72797
1.80893
1.89225
1.97768
2.065
2.15397
2.24436
2.33589
2.42831
2.52134
2.61469
2.70809
2.80126
2.89393
2.98583
3.07672
3.16638
3.25459
3.34117
3.42596
3.50881
3.58961
3.66828
3.74475
3.81899
3.891
3.9608
4.02845
4.09402
4.15765
4.21946
4.27967
4.33846
4.3961
4.45286
4.50906
4.56501
4.62107
4.6776
4.73495
4.79346
4.85341
4.91501
4.97839
5.04355
5.11039
5.17864
5.24789
5.31754
5.38684
5.45487
5.52057
5.5828
5.64031
5.69186
5.73625
5.77237
5.79896
5.81545
5.823
5.81901
5.80389
5.77798
5.74173
5.6958
5.64095
5.57807
5.50814
5.43214
5.35102
5.26576
5.1773
5.08653
4.99423
4.90108
4.80768
4.71452
4.62204
4.53057
4.44038
4.35167
4.26462
4.17931
4.09583
4.01419
3.93441
3.85649
3.78039
3.70608
3.63351
3.56262
3.49337
3.42568
3.35951
3.29479
3.23146
3.16947
3.10876
3.04926
2.99093
2.9337
2.87753
2.82237
2.76817
2.7149
2.66252
2.61099
2.5603
2.51042
2.46132
2.41299
2.36541
2.31855
2.27242
2.227
2.18228
2.13825
2.09492
2.05227
2.01032
1.96906
1.92849
1.88862
1.84943
1.81091
1.77304
1.73581
1.69915
1.66304
1.62738
1.59205
1.55689
1.52169
1.4862
1.45015
1.41322
1.37505
1.33526
1.29347
1.24926
1.20214
1.15152
1.09618
1.03374
0.965173
0.893421
0.821697
0.753041
0.68989
0.633689
0.585155
0.543868
0.509527
0.481367
0.458296
0.438065
0.425087
0.417247
0.415421
0.409808
0.348864
0.694843
0.851628
0.94421
1.00266
1.04026
1.06612
1.08758
1.10909
1.13367
1.1636
1.2
1.2431
1.29252
1.34769
1.40793
1.47266
1.54136
1.61365
1.68916
1.76765
1.84888
1.93265
2.01875
2.107
2.19716
2.28904
2.38237
2.47692
2.57241
2.66859
2.76515
2.86183
2.95834
3.0544
3.14974
3.24411
3.33727
3.42897
3.51903
3.60725
3.69346
3.77754
3.85938
3.93887
4.01599
4.09068
4.16297
4.23288
4.3005
4.36594
4.42935
4.49093
4.55091
4.60957
4.66724
4.72426
4.78105
4.838
4.89559
4.95422
5.01434
5.07627
5.14031
5.20658
5.27513
5.34579
5.41827
5.49202
5.56633
5.64025
5.71264
5.78223
5.84762
5.90737
5.96004
6.00431
6.039
6.06244
6.07576
6.07691
6.06596
6.0431
6.00874
5.96349
5.90819
5.84383
5.77148
5.69228
5.60732
5.51768
5.42443
5.32858
5.23101
5.13247
5.03365
4.93509
4.83727
4.74055
4.64525
4.55157
4.45971
4.36975
4.28177
4.1958
4.11186
4.02993
3.94998
3.87196
3.79583
3.72152
3.64897
3.57811
3.50888
3.44122
3.37505
3.31032
3.24696
3.18492
3.12413
3.06454
3.0061
2.94874
2.89244
2.83713
2.78278
2.72936
2.67683
2.62515
2.57431
2.52427
2.47501
2.42652
2.37877
2.33174
2.28543
2.23982
2.1949
2.15067
2.10711
2.06423
2.02202
1.98048
1.93959
1.89933
1.85969
1.82061
1.78205
1.74394
1.70619
1.6687
1.63128
1.59376
1.55588
1.51738
1.47796
1.43729
1.39501
1.35076
1.30415
1.25475
1.20203
1.14489
1.08098
1.011
0.937877
0.864772
0.794644
0.729902
0.671982
0.621697
0.57876
0.542704
0.512733
0.487984
0.46647
0.450543
0.438705
0.435549
0.432248
0.341656
0.659687
0.811168
0.905035
0.969469
1.01568
1.05075
1.07971
1.10762
1.13833
1.17361
1.21403
1.25985
1.31092
1.36695
1.42752
1.49225
1.56078
1.63282
1.7081
1.78644
1.86763
1.95153
2.03795
2.12673
2.21769
2.31063
2.40533
2.50154
2.59899
2.69744
2.7966
2.89619
2.99595
3.09557
3.19479
3.29332
3.39091
3.4873
3.58224
3.67549
3.76686
3.85617
3.94326
4.02799
4.11027
4.18999
4.26713
4.34164
4.41356
4.48295
4.54993
4.61463
4.67727
4.73809
4.79741
4.85557
4.91301
4.97017
5.02757
5.08572
5.14518
5.20642
5.26987
5.33584
5.40451
5.4759
5.54982
5.62589
5.70345
5.78159
5.85912
5.93469
6.00678
6.07378
6.13403
6.18603
6.22831
6.25947
6.27889
6.28564
6.2796
6.26072
6.22923
6.18574
6.13115
6.06651
5.99299
5.91188
5.82436
5.73162
5.63483
5.53509
5.43338
5.33055
5.22734
5.12437
5.02215
4.9211
4.82155
4.72373
4.62784
4.53398
4.44224
4.35265
4.26521
4.17992
4.09676
4.01566
3.93657
3.85942
3.78415
3.71067
3.63893
3.56885
3.50037
3.43341
3.36792
3.30383
3.24108
3.17962
3.11937
3.06031
3.00236
2.94549
2.88964
2.83478
2.78086
2.72785
2.67571
2.62441
2.57393
2.52423
2.47529
2.42709
2.3796
2.3328
2.28668
2.24123
2.19643
2.15227
2.10874
2.06583
2.02352
1.98178
1.94059
1.89988
1.8596
1.81969
1.78003
1.74053
1.70101
1.6613
1.62117
1.58037
1.5386
1.49556
1.45093
1.40435
1.35546
1.30383
1.24896
1.18982
1.12408
1.05278
0.978657
0.904702
0.833729
0.768039
0.709038
0.657515
0.613312
0.57593
0.544589
0.518467
0.495965
0.477751
0.463154
0.453789
0.449644
0.326656
0.615818
0.761057
0.855084
0.923468
0.976278
1.01953
1.05766
1.0938
1.13028
1.16932
1.21229
1.25975
1.31175
1.3682
1.42882
1.49336
1.56154
1.63314
1.70797
1.78586
1.86666
1.95024
2.03645
2.12516
2.21619
2.30939
2.40458
2.50159
2.6002
2.70012
2.80109
2.90281
3.00502
3.10742
3.20973
3.31168
3.41301
3.51345
3.61279
3.71057
3.80666
3.90086
3.99297
4.08281
4.17023
4.25507
4.33724
4.41663
4.4932
4.56696
4.63797
4.7063
4.77212
4.8356
4.89703
4.95671
5.01508
5.07256
5.12971
5.18711
5.24539
5.30515
5.36697
5.43133
5.49858
5.56889
5.64227
5.71844
5.79686
5.87672
5.95696
6.03624
6.11303
6.18561
6.25217
6.31085
6.35993
6.39796
6.42381
6.43622
6.43566
6.42172
6.39429
6.35395
6.30156
6.2382
6.16508
6.08372
5.99533
5.90115
5.80242
5.70036
5.59601
5.49032
5.38409
5.27801
5.17263
5.06842
4.96572
4.86482
4.7659
4.66911
4.5745
4.48214
4.39201
4.30416
4.21853
4.13508
4.05374
3.97445
3.89711
3.82166
3.74803
3.67615
3.60593
3.53733
3.47027
3.40468
3.3405
3.27769
3.21618
3.15591
3.09683
3.0389
2.98205
2.92625
2.87143
2.81757
2.76462
2.71254
2.6613
2.61086
2.56119
2.51226
2.46403
2.41647
2.36957
2.3233
2.27763
2.23256
2.18806
2.14411
2.10068
2.05775
2.01526
1.97317
1.9314
1.88988
1.84851
1.80718
1.76574
1.72402
1.6818
1.63885
1.59489
1.54965
1.50281
1.45403
1.40298
1.3492
1.29214
1.2308
1.16307
1.09064
1.0159
0.941626
0.870414
0.8044
0.744923
0.692691
0.647629
0.609253
0.576806
0.549546
0.526147
0.506454
0.48987
0.476776
0.474546
0.307892
0.567328
0.706299
0.800028
0.871391
0.929391
0.979094
1.02399
1.06678
1.10957
1.15371
1.20021
1.24978
1.3028
1.35947
1.41975
1.48356
1.55076
1.62125
1.69487
1.77156
1.85119
1.93369
2.01892
2.10679
2.19715
2.28987
2.38477
2.48162
2.58021
2.68034
2.78176
2.88422
2.98747
3.09123
3.19524
3.29921
3.4029
3.50602
3.60836
3.70986
3.81009
3.90873
4.00555
4.1003
4.19279
4.28284
4.37034
4.45491
4.53655
4.6152
4.69085
4.76351
4.83324
4.90016
4.96446
5.02639
5.0863
5.14462
5.20188
5.25865
5.31563
5.3735
5.43293
5.49448
5.55859
5.62562
5.69576
5.76898
5.84497
5.92312
6.00253
6.08197
6.15998
6.23485
6.30475
6.36777
6.42206
6.46594
6.498
6.5171
6.52228
6.51465
6.49297
6.45785
6.41002
6.35039
6.27992
6.20037
6.1131
6.01947
5.92078
5.8183
5.71318
5.60641
5.49888
5.39131
5.28432
5.1784
5.07396
4.97128
4.87059
4.772
4.67562
4.58151
4.48966
4.40015
4.31296
4.22803
4.14527
4.06461
3.98597
3.90929
3.83447
3.76146
3.69019
3.62058
3.55256
3.48608
3.42108
3.35749
3.29527
3.23436
3.1747
3.11625
3.05894
3.00272
2.94753
2.89332
2.84007
2.78771
2.73621
2.68553
2.63561
2.58641
2.5379
2.49005
2.4428
2.39613
2.35002
2.30442
2.25932
2.21468
2.17046
2.12663
2.08313
2.03991
1.99689
1.95399
1.91112
1.86817
1.825
1.78145
1.73732
1.69239
1.64642
1.59913
1.55024
1.4994
1.44628
1.39041
1.33113
1.26719
1.19781
1.12458
1.04969
0.975631
0.904769
0.839033
0.77965
0.727229
0.681726
0.642691
0.609391
0.581149
0.5569
0.536096
0.51848
0.50138
0.499217
0.285384
0.517174
0.650311
0.743435
0.816856
0.878674
0.93324
0.983387
1.03126
1.07845
1.12621
1.17541
1.22677
1.28065
1.3373
1.39684
1.45938
1.52492
1.59349
1.66506
1.73963
1.81713
1.89754
1.98077
2.06675
2.15537
2.24651
2.34002
2.43571
2.53341
2.63293
2.73407
2.8366
2.94029
3.0449
3.15016
3.2558
3.36156
3.4671
3.57218
3.67646
3.77975
3.8818
3.98236
4.08119
4.17804
4.2727
4.36501
4.45492
4.54208
4.62626
4.70732
4.78518
4.85982
4.93127
4.99951
5.06472
5.12721
5.18729
5.24543
5.30216
5.35813
5.41405
5.47059
5.52846
5.58831
5.65078
5.71617
5.78462
5.856
5.92992
6.00563
6.08213
6.1581
6.23199
6.30203
6.36635
6.42303
6.47027
6.50653
6.53061
6.54052
6.53813
6.52184
6.49189
6.44888
6.39355
6.32668
6.25104
6.1674
6.07688
5.9808
5.88044
5.77701
5.67154
5.56498
5.4581
5.35155
5.24586
5.1415
5.03877
4.9379
4.83899
4.74226
4.64775
4.55536
4.46531
4.37761
4.29219
4.20897
4.12786
4.04879
3.9717
3.8965
3.82314
3.75154
3.68163
3.61336
3.54665
3.48146
3.41773
3.3554
3.29444
3.2348
3.17641
3.11921
3.06313
3.00811
2.95411
2.90108
2.84897
2.79774
2.74731
2.69765
2.64869
2.60039
2.5527
2.50557
2.45895
2.41281
2.3671
2.32178
2.27681
2.23215
2.18774
2.14353
2.09945
2.05544
2.0114
1.96726
1.92291
1.87821
1.83302
1.78716
1.74043
1.69261
1.64343
1.59262
1.53984
1.48472
1.42675
1.3651
1.29874
1.22811
1.15456
1.08003
1.00674
0.936812
0.871927
0.813171
0.761048
0.715511
0.676143
0.642262
0.613218
0.58817
0.566345
0.54794
0.528713
0.525261
0.258575
0.461392
0.591224
0.68444
0.759722
0.824529
0.88283
0.937028
0.988872
1.03961
1.09026
1.14153
1.19403
1.24818
1.30431
1.36263
1.42337
1.48663
1.55254
1.62117
1.6926
1.76683
1.8439
1.92379
2.00647
2.09188
2.17994
2.27054
2.36356
2.45886
2.55627
2.65563
2.75674
2.85942
2.96343
3.06858
3.17461
3.28129
3.3884
3.49563
3.60268
3.70931
3.81522
3.92016
4.02382
4.12593
4.22616
4.32417
4.41964
4.51245
4.60238
4.68925
4.77287
4.85317
4.93009
5.00354
5.0734
5.13982
5.20293
5.26312
5.32075
5.37644
5.4308
5.48461
5.5386
5.59356
5.64992
5.70824
5.76885
5.83189
5.8972
5.96445
6.03295
6.10183
6.16986
6.23557
6.29734
6.35333
6.40177
6.44099
6.46959
6.48632
6.48965
6.48076
6.45815
6.42236
6.37409
6.31419
6.2441
6.16525
6.07903
5.98681
5.88991
5.78954
5.68681
5.58267
5.47793
5.37325
5.26922
5.16631
5.06486
4.96511
4.86717
4.77128
4.67749
4.5854
4.49602
4.40909
4.32441
4.24189
4.16145
4.08303
4.00655
3.93196
3.85919
3.78818
3.71886
3.65119
3.58507
3.5205
3.45744
3.39574
3.33547
3.27651
3.21882
3.16234
3.107
3.05274
2.9995
2.94726
2.89596
2.84554
2.79592
2.74703
2.69882
2.65123
2.60419
2.55764
2.51153
2.46579
2.42037
2.37523
2.33029
2.28552
2.24085
2.19621
2.15155
2.10679
2.06185
2.01664
1.97107
1.92502
1.87835
1.83092
1.78253
1.73298
1.68203
1.62939
1.57469
1.51753
1.45732
1.39317
1.32515
1.25385
1.18054
1.10694
1.03502
0.966584
0.903096
0.845463
0.794084
0.748892
0.709497
0.675284
0.64564
0.619868
0.597167
0.577897
0.557771
0.551429
0.227975
0.405963
0.532881
0.626348
0.703035
0.770069
0.831096
0.888241
0.942989
0.99633
1.04906
1.10174
1.15488
1.20886
1.26405
1.32069
1.37909
1.43945
1.50198
1.56684
1.63419
1.70414
1.77679
1.85218
1.93037
2.01135
2.09509
2.18155
2.27064
2.36228
2.45634
2.5527
2.65121
2.7517
2.854
2.95792
3.06326
3.16981
3.27734
3.3856
3.49433
3.60328
3.71216
3.82071
3.9286
4.03555
4.14121
4.24532
4.34745
4.44727
4.54445
4.63867
4.7296
4.81696
4.90044
4.97992
5.05528
5.12652
5.19365
5.25685
5.31632
5.37251
5.42588
5.47712
5.52692
5.57588
5.62473
5.67393
5.7241
5.77543
5.82826
5.88248
5.93807
5.99448
6.05114
6.10707
6.16105
6.21157
6.25699
6.29572
6.32631
6.34757
6.35616
6.354
6.33903
6.31137
6.2715
6.2202
6.15854
6.08777
6.0092
5.92416
5.83396
5.7398
5.64281
5.54395
5.44407
5.34383
5.24388
5.14468
5.04662
4.94996
4.85485
4.76155
4.67014
4.58029
4.49284
4.40761
4.32451
4.24347
4.16444
4.08738
4.01222
3.9389
3.86738
3.7976
3.7295
3.66303
3.59809
3.53473
3.47289
3.41232
3.35337
3.29584