/*--------------------------------*- C++ -*----------------------------------*\
| =========                 |                                                 |
| \\      /  F ield         | OpenFOAM: The Open Source CFD Toolbox           |
|  \\    /   O peration     | Version:  2212                                  |
|   \\  /    A nd           | Website:  www.openfoam.com                      |
|    \\/     M anipulation  |                                                 |
\*---------------------------------------------------------------------------*/
FoamFile
{
    version     2.0;
    format      ascii;
    arch        "LSB;label=32;scalar=64";
    class       volScalarField;
    location    "50";
    object      p;
}
// * * * * * * * * * * * * * * * * * * * * * * * * * * * * * * * * * * * * * //

dimensions      [0 2 -2 0 0 0 0];

internalField   nonuniform List<scalar> 
12225
(
-1.22144
-3.37609
-4.4599
-4.75914
-4.92947
-5.09396
-5.20755
-5.28356
-5.35289
-5.41623
-5.45791
-5.47378
-5.47282
-5.46707
-5.46134
-5.44585
-5.4327
-5.33842
-4.35208
-5.13309
-5.33669
-5.23266
-5.19857
-5.24812
-5.2983
-5.33875
-5.38616
-5.43483
-5.46726
-5.47767
-5.47405
-5.46762
-5.46169
-5.45008
-5.42667
-5.41143
-4.7325
-4.66505
-4.77915
-4.84806
-4.94689
-5.07446
-5.17907
-5.25892
-5.33121
-5.3942
-5.43631
-5.45488
-5.45914
-5.46024
-5.46064
-5.45579
-5.44375
-5.42924
-4.60566
-4.51699
-4.76444
-4.94353
-5.05894
-5.16421
-5.24913
-5.31549
-5.37452
-5.42429
-5.45659
-5.47028
-5.4738
-5.47607
-5.4775
-5.47406
-5.46065
-5.43001
-4.598
-4.6088
-4.8472
-5.0029
-5.08724
-5.16683
-5.24122
-5.30576
-5.3635
-5.41141
-5.44379
-5.46088
-5.46994
-5.47748
-5.48259
-5.48127
-5.46774
-5.442
-4.66024
-4.70168
-4.88307
-5.01073
-5.09024
-5.16767
-5.24241
-5.30888
-5.36707
-5.41421
-5.44689
-5.46647
-5.47912
-5.48961
-5.49655
-5.49632
-5.48606
-5.46877
-4.72453
-4.76376
-4.90288
-5.01802
-5.10281
-5.18043
-5.25188
-5.31607
-5.3727
-5.41861
-5.45134
-5.4726
-5.48783
-5.50063
-5.50956
-5.51188
-5.50638
-5.49422
-4.78221
-4.81657
-4.92869
-5.03439
-5.12063
-5.19534
-5.26129
-5.32211
-5.37768
-5.4236
-5.45709
-5.48012
-5.49782
-5.51313
-5.52476
-5.53061
-5.53002
-5.52355
-4.83671
-4.86767
-4.96007
-5.05501
-5.13821
-5.20909
-5.2706
-5.32893
-5.38408
-5.43056
-5.46505
-5.48984
-5.50988
-5.52773
-5.54252
-5.55253
-5.55744
-5.55756
-4.8892
-4.91713
-4.99375
-5.07791
-5.15605
-5.22315
-5.28161
-5.33829
-5.39299
-5.43978
-5.47531
-5.50194
-5.52419
-5.5446
-5.56281
-5.57747
-5.58834
-5.59563
-4.93956
-4.96429
-5.02758
-5.10261
-5.17555
-5.23867
-5.29458
-5.34986
-5.40386
-5.45089
-5.48787
-5.51663
-5.5412
-5.56419
-5.58584
-5.60528
-5.62225
-5.63633
-4.98366
-5.00552
-5.05895
-5.12656
-5.19508
-5.25483
-5.30846
-5.362
-5.41487
-5.46228
-5.50128
-5.53269
-5.55965
-5.58479
-5.60921
-5.63262
-5.6549
-5.67544
-5.02524
-5.04481
-5.09077
-5.1507
-5.21475
-5.27243
-5.3245
-5.37574
-5.4266
-5.47417
-5.51584
-5.551
-5.58095
-5.60831
-5.63499
-5.66162
-5.68881
-5.71482
-5.06998
-5.08704
-5.12708
-5.17877
-5.23716
-5.29375
-5.34567
-5.39452
-5.44208
-5.48884
-5.53368
-5.57384
-5.6086
-5.6394
-5.66868
-5.69804
-5.72924
-5.76031
-5.11693
-5.13143
-5.16701
-5.21154
-5.26312
-5.31815
-5.37149
-5.41952
-5.46357
-5.50824
-5.55498
-5.60079
-5.64206
-5.6782
-5.71113
-5.74347
-5.77822
-5.81364
-5.16449
-5.17721
-5.20848
-5.24807
-5.29319
-5.34494
-5.39995
-5.45004
-5.49295
-5.535
-5.5819
-5.63232
-5.68089
-5.72414
-5.76242
-5.79829
-5.83616
-5.87487
-5.20995
-5.22124
-5.24891
-5.28634
-5.3274
-5.37475
-5.43006
-5.48398
-5.5292
-5.57038
-5.61633
-5.66929
-5.72446
-5.77571
-5.82064
-5.8613
-5.90284
-5.94499
-5.2489
-5.25942
-5.28474
-5.32178
-5.36212
-5.40674
-5.46131
-5.5187
-5.56842
-5.61186
-5.65848
-5.71325
-5.77311
-5.83153
-5.88386
-5.93038
-5.97586
-6.02052
-5.27372
-5.28458
-5.30964
-5.34726
-5.38989
-5.43604
-5.49147
-5.55167
-5.60636
-5.65477
-5.7051
-5.76318
-5.82696
-5.89034
-5.94819
-6.00017
-6.05012
-6.09835
-5.27083
-5.28269
-5.31019
-5.35096
-5.39822
-5.44976
-5.50889
-5.57175
-5.62974
-5.68354
-5.73978
-5.80313
-5.87008
-5.93551
-5.99516
-6.05021
-6.10366
-6.15642
-5.25156
-5.26464
-5.29595
-5.34113
-5.3937
-5.45107
-5.51459
-5.57944
-5.64059
-5.6996
-5.76263
-5.83077
-5.90025
-5.96561
-6.02579
-6.08185
-6.13834
-6.19428
-5.22052
-5.23454
-5.27047
-5.32226
-5.38226
-5.44643
-5.51374
-5.58028
-5.64414
-5.70901
-5.77859
-5.85133
-5.92218
-5.98741
-6.04761
-6.10538
-6.16426
-6.22338
-5.18184
-5.19537
-5.23624
-5.29731
-5.36682
-5.43867
-5.51001
-5.57842
-5.64523
-5.71497
-5.7894
-5.8649
-5.93594
-6.00116
-6.06208
-6.12273
-6.18476
-6.24759
-5.1387
-5.15013
-5.19853
-5.26975
-5.34612
-5.42411
-5.50146
-5.57514
-5.64727
-5.7221
-5.79976
-5.87571
-5.94558
-6.00947
-6.07087
-6.13291
-6.19742
-6.26205
-5.09161
-5.09492
-5.16633
-5.25348
-5.32796
-5.40334
-5.48371
-5.56371
-5.64353
-5.72575
-5.8086
-5.88669
-5.95699
-6.02111
-6.08345
-6.14706
-6.21301
-6.2791
-5.0481
-5.00128
-5.12304
-5.25277
-5.33171
-5.40014
-5.4745
-5.55052
-5.62921
-5.71316
-5.79808
-5.8771
-5.94761
-6.01236
-6.07616
-6.14196
-6.21011
-6.2779
-5.06701
-4.8731
-5.00875
-5.19005
-5.31316
-5.41497
-5.50673
-5.58778
-5.66697
-5.75101
-5.83574
-5.91245
-5.97904
-6.03962
-6.09992
-6.16319
-6.23061
-6.30014
-5.20881
-4.96543
-4.95234
-5.0064
-5.10043
-5.22961
-5.35455
-5.46118
-5.5624
-5.66721
-5.77067
-5.86215
-5.93863
-6.00613
-6.07164
-6.13901
-6.21079
-6.28505
-4.93721
-5.56582
-5.69859
-5.56354
-5.48763
-5.51402
-5.56773
-5.6193
-5.68072
-5.75876
-5.84391
-5.92185
-5.98672
-6.04398
-6.10085
-6.16117
-6.227
-6.29727
-1.88336
-3.65488
-4.67068
-4.95896
-5.10207
-5.2647
-5.40457
-5.50996
-5.60739
-5.71124
-5.81472
-5.90537
-5.9788
-6.04118
-6.10103
-6.16319
-6.22901
-6.29481
-7.2204
-7.20672
-7.22121
-7.27343
-7.34379
-7.41409
-7.47383
-7.518
-7.5465
-7.56258
-7.56991
-7.57215
-7.57301
-7.57554
-7.58157
-7.59155
-7.60547
-7.62333
-7.64561
-7.67297
-7.7073
-7.75222
-7.81395
-7.89877
-8.01177
-8.15553
-8.33064
-8.53564
-8.76741
-9.02192
-9.29406
-9.57926
-9.87247
-10.1699
-10.4674
-10.7626
-11.0522
-11.3351
-11.6088
-11.8728
-12.1252
-12.3659
-12.593
-12.8067
-13.0056
-13.19
-13.3583
-13.511
-13.6464
-13.7648
-13.8643
-13.9447
-14.0035
-14.0399
-14.0512
-14.0361
-13.991
-13.9147
-13.8037
-13.6569
-13.4715
-13.2474
-12.9829
-12.6783
-12.3328
-11.9469
-11.5206
-11.0551
-10.5514
-10.0115
-9.43745
-8.83221
-8.19884
-7.54019
-6.85958
-6.16017
-5.44707
-4.72375
-3.9955
-3.26524
-2.53783
-1.81563
-1.10344
-0.402249
0.283687
0.953683
1.60405
2.23428
2.8422
3.42783
3.99165
4.53309
5.05173
5.54756
6.021
6.4725
6.90281
7.31259
7.70268
8.07386
8.42709
8.76322
9.08316
9.38764
9.67742
9.95333
10.2161
10.4665
10.7054
10.9333
11.151
11.359
11.5578
11.7478
11.9297
12.1036
12.2702
12.43
12.5831
12.7298
12.8699
13.0037
13.1313
13.253
13.3691
13.48
13.5857
13.6866
13.7828
13.875
13.9629
14.0467
14.1264
14.2027
14.2757
14.3456
14.4122
14.4756
14.5362
14.5945
14.6505
14.7039
14.7548
14.8036
14.8505
14.8956
14.9394
14.9818
15.0222
15.0615
15.1006
15.1393
15.1771
15.2147
15.2528
15.2909
15.3289
15.3675
15.407
15.447
15.4861
15.5229
15.557
15.5878
15.6145
15.636
15.6522
15.6634
15.6708
15.6755
15.6776
15.6776
15.6773
15.6777
15.6801
15.6868
15.7011
15.7263
15.7783
15.8386
-7.2991
-7.31088
-7.34792
-7.40469
-7.47064
-7.53319
-7.58375
-7.61727
-7.63041
-7.62353
-7.60237
-7.57535
-7.55025
-7.53178
-7.52111
-7.51756
-7.52102
-7.53195
-7.55018
-7.57492
-7.60726
-7.65258
-7.71992
-7.81665
-7.94692
-8.11137
-8.30811
-8.53331
-8.78201
-9.04915
-9.32947
-9.61853
-9.91202
-10.2068
-10.4997
-10.7889
-11.0722
-11.3487
-11.6169
-11.8761
-12.125
-12.3633
-12.5898
-12.8041
-13.0051
-13.1923
-13.3645
-13.5214
-13.6615
-13.7842
-13.888
-13.9721
-14.0344
-14.0736
-14.0876
-14.0749
-14.033
-13.9606
-13.8553
-13.7161
-13.5411
-13.3292
-13.0788
-12.7886
-12.4579
-12.0867
-11.675
-11.2236
-10.7335
-10.2064
-9.64434
-9.05007
-8.42627
-7.77555
-7.10151
-6.4076
-5.69824
-4.97784
-4.25082
-3.52047
-2.79169
-2.06748
-1.35145
-0.646161
0.0449502
0.720286
1.37695
2.01385
2.62875
3.22175
3.79286
4.34148
4.86726
5.37024
5.85082
6.30924
6.7463
7.16263
7.55906
7.93632
8.29544
8.63719
8.96257
9.27214
9.56689
9.84753
10.1148
10.3695
10.6126
10.8445
11.066
11.2778
11.4802
11.6736
11.8587
12.0358
12.2049
12.3665
12.5211
12.669
12.8106
12.9458
13.075
13.1983
13.316
13.4284
13.5359
13.6386
13.7365
13.8301
13.9196
14.005
14.0864
14.1641
14.2385
14.3098
14.3778
14.4426
14.5045
14.5641
14.6212
14.6757
14.7278
14.7779
14.8259
14.8718
14.9166
14.9602
15.0017
15.0418
15.0819
15.1219
15.1607
15.1989
15.2379
15.277
15.3159
15.3551
15.3947
15.435
15.4744
15.5115
15.5459
15.577
15.6041
15.6263
15.6434
15.6553
15.6634
15.6691
15.672
15.6724
15.6726
15.6734
15.6757
15.6815
15.6934
15.7147
15.7582
15.8025
-7.39958
-7.43048
-7.47258
-7.51853
-7.56509
-7.60566
-7.63465
-7.64886
-7.64677
-7.62913
-7.59983
-7.56523
-7.5318
-7.50393
-7.48389
-7.47381
-7.47665
-7.49517
-7.53068
-7.58323
-7.65321
-7.7422
-7.85307
-7.98803
-8.14778
-8.33134
-8.53655
-8.7604
-8.99954
-9.25082
-9.51091
-9.77704
-10.0464
-10.317
-10.5866
-10.854
-11.1175
-11.3763
-11.629
-11.8751
-12.1133
-12.3432
-12.5635
-12.7739
-12.973
-13.1603
-13.3345
-13.4949
-13.64
-13.7689
-13.8801
-13.9724
-14.0434
-14.092
-14.1158
-14.1133
-14.0823
-14.0213
-13.9283
-13.8019
-13.6405
-13.4425
-13.2063
-12.9306
-12.6147
-12.2583
-11.8612
-11.4238
-10.9471
-10.4327
-9.88238
-9.29838
-8.68311
-8.03947
-7.37103
-6.6818
-5.97605
-5.25795
-4.5317
-3.80108
-3.07043
-2.34342
-1.62355
-0.913862
-0.217396
0.463536
1.1265
1.76962
2.39143
2.9914
3.56957
4.12523
4.65788
5.16772
5.65492
6.11984
6.56318
6.98564
7.38789
7.77082
8.13536
8.48233
8.81265
9.12693
9.42616
9.71103
9.9825
10.2411
10.488
10.7236
10.9487
11.1638
11.3695
11.5662
11.7545
11.9347
12.1072
12.2722
12.4304
12.5819
12.7268
12.8653
12.9977
13.124
13.2449
13.3603
13.4706
13.576
13.6765
13.7726
13.8646
13.9524
14.0361
14.1159
14.1924
14.2656
14.3355
14.4021
14.4658
14.5269
14.5856
14.6415
14.6951
14.7466
14.7959
14.843
14.8889
14.9336
14.9765
15.0179
15.0591
15.1001
15.14
15.1792
15.219
15.2591
15.2988
15.3386
15.3786
15.4192
15.4589
15.4963
15.5312
15.5631
15.5908
15.614
15.632
15.645
15.6541
15.6606
15.6644
15.6655
15.6662
15.6674
15.6696
15.6744
15.6838
15.7003
15.7317
15.7509
-7.37615
-7.41847
-7.46561
-7.50455
-7.54034
-7.57087
-7.59169
-7.60038
-7.59627
-7.5807
-7.55708
-7.53047
-7.50623
-7.48872
-7.48144
-7.48793
-7.51191
-7.55607
-7.62124
-7.70647
-7.81039
-7.93191
-8.07066
-8.22641
-8.39882
-8.58704
-8.78973
-9.00524
-9.23166
-9.46714
-9.70955
-9.95712
-10.2079
-10.4604
-10.713
-10.9646
-11.2138
-11.4598
-11.7013
-11.9378
-12.168
-12.3915
-12.6069
-12.8138
-13.0109
-13.1976
-13.3725
-13.5348
-13.6831
-13.8163
-13.9327
-14.031
-14.1092
-14.1656
-14.1982
-14.2052
-14.1844
-14.1341
-14.0523
-13.9374
-13.7875
-13.6009
-13.3761
-13.1116
-12.8066
-12.4605
-12.0731
-11.6446
-11.1758
-10.6681
-10.1233
-9.54331
-8.93072
-8.28854
-7.62048
-6.93058
-6.22309
-5.50224
-4.77229
-4.03735
-3.30164
-2.56906
-1.84322
-1.12738
-0.424519
0.262733
0.932051
1.58147
2.20947
2.81574
3.3998
3.96108
4.49916
5.01408
5.50617
5.97579
6.4236
6.85029
7.25662
7.64346
8.01171
8.36224
8.69585
9.01341
9.31569
9.60356
9.87789
10.1395
10.3891
10.6275
10.8552
11.0729
11.2812
11.4805
11.6712
11.8539
12.0288
12.1964
12.3571
12.5109
12.6582
12.799
12.9337
13.0624
13.1855
13.3031
13.4155
13.5229
13.6255
13.7237
13.8175
13.9071
13.9926
14.0743
14.1525
14.2272
14.2986
14.3667
14.4319
14.4944
14.5543
14.6115
14.6662
14.7186
14.7689
14.8172
14.8641
14.9095
14.9534
14.996
15.038
15.0796
15.1203
15.1604
15.2007
15.2411
15.2811
15.3212
15.3614
15.4018
15.4413
15.4789
15.5142
15.5466
15.5751
15.5992
15.6182
15.6325
15.6429
15.6503
15.655
15.657
15.6581
15.6596
15.6617
15.665
15.6714
15.6818
15.7004
15.7
-7.18182
-7.2431
-7.31478
-7.36304
-7.39947
-7.42876
-7.44983
-7.46248
-7.46795
-7.4682
-7.46594
-7.46469
-7.46834
-7.4806
-7.50482
-7.54381
-7.59964
-7.6733
-7.76478
-7.87323
-7.99757
-8.13662
-8.28948
-8.45538
-8.63354
-8.8231
-9.02301
-9.23218
-9.44936
-9.67339
-9.90292
-10.1369
-10.3738
-10.6128
-10.8524
-11.0921
-11.3304
-11.5668
-11.8001
-12.0297
-12.2543
-12.4736
-12.6862
-12.8916
-13.0884
-13.2759
-13.4528
-13.6181
-13.7704
-13.9086
-14.0309
-14.1358
-14.2215
-14.2862
-14.3278
-14.3445
-14.3339
-14.2941
-14.223
-14.1185
-13.9789
-13.8021
-13.5866
-13.3307
-13.0335
-12.6941
-12.3123
-11.8881
-11.4223
-10.9161
-10.3711
-9.78951
-9.17395
-8.52759
-7.8543
-7.15823
-6.44374
-5.71517
-4.97697
-4.23353
-3.48915
-2.74791
-2.01358
-1.28957
-0.578901
0.115675
0.791827
1.44761
2.08168
2.69334
3.28246
3.84821
4.39025
4.90875
5.40403
5.8766
6.32707
6.75623
7.16485
7.55389
7.92415
8.27667
8.61208
8.93151
9.23551
9.52529
9.80143
10.065
10.3165
10.5568
10.7864
11.006
11.216
11.417
11.6094
11.7937
11.9702
12.1394
12.3015
12.4569
12.6056
12.748
12.8841
13.0143
13.1388
13.2579
13.3718
13.4807
13.5848
13.6844
13.7795
13.8705
13.9574
14.0405
14.12
14.196
14.2686
14.3381
14.4045
14.4681
14.5291
14.5873
14.643
14.6963
14.7475
14.7967
14.8443
14.8904
14.9351
14.9785
15.0211
15.0631
15.1044
15.145
15.1855
15.2258
15.2659
15.3057
15.3455
15.3853
15.4242
15.4616
15.4969
15.5294
15.5585
15.5832
15.6031
15.6186
15.6303
15.6388
15.6444
15.6472
15.6489
15.6507
15.6523
15.6539
15.6569
15.6608
15.6679
15.6529
-6.8874
-6.97491
-7.07904
-7.1444
-7.18763
-7.22123
-7.24843
-7.27164
-7.29384
-7.31777
-7.3455
-7.37896
-7.42012
-7.4708
-7.53264
-7.60694
-7.69468
-7.79623
-7.91143
-8.03966
-8.18011
-8.33192
-8.49425
-8.66634
-8.8475
-9.03702
-9.23415
-9.43822
-9.64841
-9.86403
-10.0842
-10.3082
-10.5351
-10.7642
-10.9945
-11.2255
-11.4561
-11.6858
-11.9134
-12.1385
-12.36
-12.5772
-12.7889
-12.9946
-13.1928
-13.3829
-13.5633
-13.7332
-13.8909
-14.0353
-14.1646
-14.2774
-14.3716
-14.4455
-14.4969
-14.5237
-14.5237
-14.4946
-14.4342
-14.3402
-14.2104
-14.043
-13.8359
-13.5874
-13.2964
-12.9617
-12.5831
-12.1604
-11.6943
-11.1859
-10.6369
-10.0496
-9.42685
-8.77196
-8.08893
-7.38213
-6.65616
-5.91562
-5.16521
-4.40958
-3.65324
-2.90048
-2.15521
-1.42101
-0.700989
0.0020382
0.685761
1.34829
1.98819
2.60516
3.19863
3.76806
4.31311
4.83407
5.33137
5.80561
6.25748
6.6878
7.09748
7.48743
7.85863
8.21192
8.54828
8.86852
9.17359
9.46435
9.74169
10.0063
10.259
10.5005
10.7313
10.952
11.1633
11.3655
11.5591
11.7445
11.9221
12.0924
12.2556
12.412
12.5618
12.7053
12.8425
12.9738
13.0994
13.2197
13.3348
13.4448
13.5501
13.6508
13.7471
13.8392
13.9272
14.0115
14.092
14.1691
14.2428
14.3133
14.3809
14.4455
14.5075
14.5667
14.6233
14.6777
14.7298
14.78
14.8284
14.8752
14.9206
14.9648
15.008
15.0505
15.0921
15.1331
15.1736
15.2138
15.2536
15.2929
15.3321
15.3709
15.4089
15.4457
15.4805
15.5128
15.5417
15.5667
15.5874
15.6039
15.6167
15.6263
15.6328
15.6364
15.6386
15.6406
15.6415
15.6411
15.6406
15.6384
15.6358
15.6091
-6.59156
-6.69725
-6.82787
-6.91107
-6.96526
-7.00855
-7.04745
-7.08607
-7.1284
-7.17746
-7.23478
-7.30097
-7.3764
-7.46139
-7.55627
-7.66135
-7.77675
-7.90238
-8.03787
-8.18277
-8.3365
-8.49847
-8.66809
-8.8449
-9.02842
-9.21822
-9.41383
-9.61487
-9.82081
-10.0312
-10.2456
-10.4634
-10.684
-10.907
-11.1315
-11.3572
-11.5831
-11.8089
-12.0335
-12.2565
-12.4768
-12.6938
-12.9065
-13.1141
-13.3152
-13.5092
-13.6945
-13.8702
-14.0346
-14.1865
-14.324
-14.4457
-14.5494
-14.6335
-14.6955
-14.7333
-14.7445
-14.7267
-14.6774
-14.5941
-14.4746
-14.3165
-14.1176
-13.8762
-13.5906
-13.2597
-12.8828
-12.4599
-11.9914
-11.4785
-10.9229
-10.327
-9.69384
-9.02702
-8.33076
-7.60963
-6.86859
-6.11262
-5.34671
-4.57585
-3.80482
-3.0381
-2.27984
-1.53373
-0.80303
-0.0905595
0.601358
1.27089
1.91683
2.53862
3.13612
3.70864
4.25605
4.77872
5.27726
5.75234
6.20482
6.63552
7.04555
7.43571
7.80721
8.1607
8.49735
8.81778
9.12323
9.41428
9.69211
9.95718
10.2105
10.4525
10.684
10.9054
11.1175
11.3204
11.5148
11.701
11.8796
12.0507
12.2148
12.372
12.5227
12.667
12.8052
12.9374
13.0641
13.1853
13.3014
13.4124
13.5187
13.6204
13.7177
13.8107
13.8998
13.985
14.0665
14.1445
14.2192
14.2908
14.3592
14.4249
14.4878
14.5479
14.6056
14.6609
14.714
14.7652
14.8145
14.8622
14.9085
14.9535
14.9974
15.0404
15.0825
15.1238
15.1644
15.2045
15.2439
15.2827
15.321
15.3588
15.3958
15.4316
15.4656
15.4971
15.5256
15.5505
15.5716
15.5889
15.6024
15.6128
15.6202
15.6248
15.6276
15.6291
15.6291
15.627
15.623
15.6155
15.6047
15.5685
-6.3601
-6.47328
-6.61743
-6.7144
-6.7807
-6.83642
-6.88971
-6.94523
-7.00688
-7.07759
-7.1586
-7.24985
-7.3509
-7.46124
-7.5804
-7.70797
-7.84356
-7.9868
-8.13725
-8.29455
-8.45822
-8.62795
-8.80337
-8.9842
-9.17018
-9.36112
-9.5567
-9.75674
-9.96089
-10.1689
-10.3804
-10.5952
-10.8127
-11.0326
-11.2543
-11.4776
-11.7017
-11.9262
-12.1502
-12.3734
-12.5946
-12.8136
-13.0289
-13.2401
-13.4458
-13.6452
-13.8368
-14.0196
-14.1919
-14.3524
-14.4994
-14.6311
-14.7456
-14.8408
-14.9144
-14.9642
-14.9874
-14.9817
-14.9443
-14.8724
-14.7636
-14.6152
-14.4249
-14.1905
-13.9102
-13.5826
-13.2068
-12.7827
-12.3105
-11.7914
-11.2273
-10.6205
-9.97451
-9.29305
-8.58068
-7.84234
-7.08334
-6.30911
-5.52506
-4.73653
-3.94861
-3.16608
-2.39325
-1.63401
-0.891659
-0.169089
0.531443
1.20818
1.85994
2.48653
3.08766
3.66291
4.21225
4.73625
5.2356
5.71116
6.16385
6.5947
7.00463
7.39471
7.76584
8.11907
8.45527
8.77547
9.08059
9.37158
9.64925
9.91442
10.1678
10.41
10.6418
10.8636
11.076
11.2794
11.4744
11.6612
11.8404
12.0122
12.177
12.335
12.4864
12.6314
12.7704
12.9035
13.031
13.1531
13.2701
13.3821
13.4893
13.5919
13.6901
13.7841
13.8741
13.9601
14.0425
14.1214
14.197
14.2695
14.3388
14.4053
14.4691
14.5302
14.5888
14.645
14.6992
14.7513
14.8017
14.8504
14.8976
14.9435
14.9882
15.0319
15.0745
15.1162
15.157
15.1971
15.2362
15.2745
15.3121
15.3488
15.3847
15.4193
15.4522
15.4827
15.5104
15.5348
15.5559
15.5735
15.5875
15.5985
15.6066
15.6123
15.6156
15.6165
15.6154
15.6117
15.6048
15.5925
15.5749
15.531
-6.21897
-6.33196
-6.47545
-6.57908
-6.65484
-6.72158
-6.78779
-6.85773
-6.93471
-7.02127
-7.11846
-7.22615
-7.34356
-7.46985
-7.60417
-7.7458
-7.89407
-8.04851
-8.20863
-8.37409
-8.54457
-8.71984
-8.89963
-9.08385
-9.27224
-9.46476
-9.66122
-9.86157
-10.0656
-10.2732
-10.484
-10.6981
-10.9148
-11.1342
-11.3557
-11.5791
-11.8036
-12.0292
-12.2548
-12.4803
-12.7045
-12.9272
-13.147
-13.3635
-13.5752
-13.7814
-13.9807
-14.1719
-14.3534
-14.5239
-14.6814
-14.8244
-14.9506
-15.0581
-15.1444
-15.2071
-15.2434
-15.2507
-15.226
-15.1664
-15.069
-14.9311
-14.7499
-14.5229
-14.2481
-13.9238
-13.549
-13.123
-12.6463
-12.12
-11.5458
-10.9265
-10.2656
-9.56729
-8.83651
-8.07863
-7.2994
-6.50474
-5.70056
-4.89257
-4.08624
-3.28662
-2.49823
-1.72507
-0.970547
-0.237524
0.471791
1.15577
1.81342
2.4446
3.04928
3.62714
4.1783
4.70355
5.20359
5.67947
6.13205
6.56257
6.97187
7.36128
7.7315
8.08393
8.41922
8.73873
9.04311
9.33362
9.61078
9.8757
10.1288
10.371
10.6027
10.8247
11.0372
11.241
11.4362
11.6236
11.8032
11.9756
12.1409
12.2995
12.4515
12.5973
12.737
12.8709
12.9992
13.1222
13.24
13.3529
13.4609
13.5645
13.6635
13.7584
13.8492
13.9362
14.0194
14.0992
14.1757
14.2489
14.3192
14.3865
14.4511
14.513
14.5725
14.6297
14.6848
14.738
14.7894
14.8392
14.8874
14.9342
14.9798
15.0241
15.0673
15.1094
15.1505
15.1907
15.2297
15.2677
15.3046
15.3405
15.3752
15.4085
15.4401
15.4694
15.4961
15.5199
15.5406
15.5582
15.5723
15.5836
15.5921
15.5984
15.6023
15.6028
15.6009
15.5957
15.5862
15.57
15.5466
15.4964
-6.16619
-6.27108
-6.4026
-6.50483
-6.58474
-6.65779
-6.73201
-6.81138
-6.8983
-6.99459
-7.10109
-7.21774
-7.34379
-7.47838
-7.62056
-7.76955
-7.92458
-8.08513
-8.25069
-8.42096
-8.59558
-8.77443
-8.95731
-9.14412
-9.33468
-9.529
-9.72692
-9.92847
-10.1335
-10.3421
-10.5538
-10.7689
-10.9868
-11.2076
-11.4307
-11.6561
-11.8832
-12.1116
-12.3408
-12.5703
-12.7992
-13.0272
-13.253
-13.4762
-13.6954
-13.9098
-14.118
-14.3188
-14.5106
-14.6921
-14.8613
-15.0165
-15.1555
-15.2763
-15.3762
-15.4528
-15.5032
-15.5245
-15.5135
-15.4671
-15.3821
-15.2554
-15.084
-14.8651
-14.5962
-14.2755
-13.9014
-13.4735
-12.9917
-12.4572
-11.872
-11.2388
-10.5615
-9.84468
-9.09379
-8.31466
-7.51358
-6.697
-5.87137
-5.04283
-4.2172
-3.39979
-2.59533
-1.80791
-1.04094
-0.297294
0.420913
1.1122
1.77578
2.41167
3.01995
3.60034
4.15314
4.67918
5.17948
5.65505
6.10704
6.53655
6.94481
7.33286
7.70189
8.05291
8.38708
8.70539
9.00888
9.29845
9.575
9.83925
10.092
10.3338
10.5654
10.7872
10.9999
11.2037
11.3993
11.5869
11.767
11.9399
12.1057
12.2648
12.4175
12.5639
12.7043
12.839
12.9681
13.0919
13.2105
13.3242
13.4331
13.5375
13.6374
13.7332
13.8249
13.9127
13.9968
14.0774
14.1547
14.2288
14.2999
14.3681
14.4335
14.4963
14.5567
14.6148
14.6709
14.7251
14.7776
14.8284
14.8776
14.9253
14.9717
15.0167
15.0606
15.1031
15.1446
15.1848
15.2238
15.2616
15.2981
15.3333
15.3669
15.3989
15.429
15.457
15.4825
15.5055
15.5257
15.5431
15.5573
15.5684
15.577
15.5836
15.5876
15.5881
15.5855
15.5792
15.5677
15.548
15.5198
15.4643
-6.17864
-6.26821
-6.38058
-6.47478
-6.55342
-6.62785
-6.70468
-6.78755
-6.87861
-6.97913
-7.08946
-7.20954
-7.33868
-7.47618
-7.6211
-7.77277
-7.93039
-8.09345
-8.26139
-8.43393
-8.61073
-8.79164
-8.97646
-9.16518
-9.35764
-9.55383
-9.75361
-9.95703
-10.164
-10.3745
-10.5884
-10.8057
-11.0262
-11.2498
-11.4761
-11.705
-11.936
-12.1689
-12.403
-12.638
-12.873
-13.1076
-13.3407
-13.5718
-13.7996
-14.0233
-14.2414
-14.4528
-14.6559
-14.8493
-15.031
-15.1994
-15.352
-15.4869
-15.6013
-15.6926
-15.7579
-15.794
-15.7975
-15.7651
-15.6932
-15.5785
-15.4175
-15.2072
-14.9448
-14.6278
-14.2546
-13.8245
-13.3373
-12.7941
-12.197
-11.549
-10.8543
-10.1179
-9.34576
-8.54432
-7.72049
-6.88127
-6.03358
-5.18402
-4.33876
-3.50338
-2.68276
-1.88105
-1.10159
-0.347236
0.379927
1.07851
1.74776
2.38787
2.99913
3.58137
4.13514
4.66134
5.16123
5.63588
6.08671
6.5147
6.9214
7.30769
7.67509
8.0244
8.35713
8.67399
8.97634
9.26477
9.54048
9.80392
10.0561
10.2975
10.5288
10.7504
10.963
11.1669
11.3627
11.5506
11.731
11.9042
12.0706
12.2302
12.3835
12.5305
12.6717
12.807
12.9369
13.0615
13.181
13.2955
13.4054
13.5105
13.6114
13.708
13.8006
13.8892
13.9742
14.0557
14.1339
14.2089
14.2808
14.3498
14.4161
14.4798
14.5411
14.6002
14.6573
14.7125
14.766
14.8178
14.868
14.9166
14.9638
15.0096
15.054
15.097
15.1388
15.1792
15.2183
15.256
15.2921
15.3265
15.3592
15.3899
15.4185
15.445
15.4693
15.4914
15.511
15.5281
15.5424
15.5536
15.5622
15.5686
15.5723
15.5724
15.5693
15.5621
15.5491
15.5266
15.4941
15.4344
-6.22419
-6.29524
-6.3848
-6.46594
-6.53882
-6.6108
-6.68657
-6.76901
-6.85969
-6.9598
-7.06959
-7.18901
-7.31741
-7.45422
-7.59854
-7.74981
-7.90725
-8.07038
-8.23864
-8.41176
-8.58933
-8.77125
-8.95729
-9.1474
-9.34146
-9.53951
-9.7414
-9.94717
-10.1567
-10.3701
-10.587
-10.8077
-11.0318
-11.2593
-11.4899
-11.7235
-11.9596
-12.1981
-12.4382
-12.6798
-12.9219
-13.1642
-13.4056
-13.6455
-13.8827
-14.1165
-14.3453
-14.5681
-14.7831
-14.989
-15.1839
-15.3659
-15.5327
-15.6821
-15.8114
-15.918
-15.9986
-16.0499
-16.0684
-16.0503
-15.9919
-15.8896
-15.7394
-15.538
-15.282
-14.9688
-14.5965
-14.164
-13.6711
-13.1189
-12.5095
-11.8462
-11.1337
-10.3773
-9.58359
-8.75964
-7.91295
-7.05114
-6.18156
-5.31121
-4.44653
-3.59336
-2.75678
-1.94105
-1.14962
-0.385306
0.349988
1.05487
1.72885
2.37223
2.9855
3.56878
4.12262
4.64828
5.147
5.62023
6.06921
6.49536
6.89992
7.28426
7.64953
7.99708
8.32798
8.64338
8.94424
9.23157
9.50616
9.76883
10.0203
10.2612
10.4921
10.7135
10.926
11.13
11.3258
11.514
11.6948
11.8684
12.0352
12.1953
12.3491
12.4968
12.6387
12.7748
12.9055
13.0309
13.1512
13.2666
13.3773
13.4834
13.5851
13.6826
13.7761
13.8656
13.9515
14.0339
14.113
14.1889
14.2617
14.3315
14.3987
14.4634
14.5257
14.5858
14.6439
14.7001
14.7546
14.8074
14.8586
14.9081
14.956
15.0025
15.0475
15.091
15.1331
15.1737
15.2128
15.2503
15.286
15.3199
15.3516
15.381
15.4081
15.4332
15.4563
15.4774
15.4964
15.5133
15.5276
15.539
15.5477
15.554
15.557
15.5565
15.5525
15.5442
15.53
15.5054
15.4695
15.4064
-6.27255
-6.32565
-6.39218
-6.45767
-6.52157
-6.58801
-6.65988
-6.73921
-6.82704
-6.9242
-7.03088
-7.14713
-7.2724
-7.40632
-7.54807
-7.69711
-7.85272
-8.01449
-8.18184
-8.35451
-8.53212
-8.71449
-8.90135
-9.09266
-9.28824
-9.48813
-9.69221
-9.90054
-10.113
-10.3297
-10.5504
-10.7751
-11.0037
-11.2361
-11.472
-11.7112
-11.9534
-12.1983
-12.4454
-12.6943
-12.9442
-13.1949
-13.4451
-13.6944
-13.9416
-14.1858
-14.4256
-14.66
-14.8872
-15.1058
-15.3139
-15.5096
-15.6905
-15.8545
-15.9987
-16.1203
-16.216
-16.2825
-16.3157
-16.3119
-16.2669
-16.1767
-16.0372
-15.8445
-15.5949
-15.2855
-14.914
-14.4791
-13.9805
-13.4194
-12.7979
-12.1197
-11.3897
-10.6139
-9.79913
-8.9531
-8.08399
-7.19995
-6.30895
-5.41842
-4.53519
-3.66528
-2.81392
-1.9855
-1.18354
-0.41063
0.331212
1.04104
1.71826
2.36367
2.97775
3.56098
4.11397
4.63828
5.13517
5.60634
6.053
6.47686
6.87897
7.26105
7.62405
7.96964
8.2986
8.61242
8.91174
9.19786
9.47129
9.73315
9.98383
10.2243
10.4547
10.676
10.8883
11.0923
11.2883
11.4768
11.6578
11.8319
11.999
12.1598
12.3142
12.4626
12.6051
12.7421
12.8735
12.9998
13.1209
13.2372
13.3488
13.4558
13.5584
13.6568
13.7512
13.8417
13.9285
14.0119
14.0919
14.1686
14.2424
14.3132
14.3814
14.447
14.5103
14.5715
14.6306
14.6879
14.7434
14.7972
14.8492
14.8995
14.9482
14.9954
15.0409
15.0848
15.1272
15.168
15.2071
15.2444
15.2797
15.3128
15.3435
15.3717
15.3974
15.4211
15.4431
15.4633
15.4819
15.4985
15.5129
15.5247
15.5336
15.5398
15.5425
15.5412
15.536
15.5262
15.5103
15.4841
15.4458
15.3806
-6.29939
-6.33734
-6.3835
-6.43342
-6.4871
-6.54635
-6.6125
-6.68693
-6.77026
-6.86308
-6.9654
-7.07734
-7.19838
-7.32827
-7.46634
-7.61217
-7.76511
-7.92479
-8.09067
-8.26242
-8.43964
-8.62221
-8.80982
-9.00233
-9.1996
-9.40159
-9.60817
-9.81942
-10.0352
-10.2556
-10.4804
-10.7097
-10.9433
-11.181
-11.4226
-11.6681
-11.9168
-12.1687
-12.4231
-12.6799
-12.9381
-13.1975
-13.4569
-13.716
-13.9733
-14.2282
-14.4791
-14.7252
-14.9645
-15.1958
-15.417
-15.6263
-15.8212
-15.9995
-16.1583
-16.2947
-16.4053
-16.4865
-16.5342
-16.5442
-16.5123
-16.434
-16.3048
-16.1206
-15.8773
-15.5716
-15.2008
-14.7635
-14.2594
-13.6893
-13.0559
-12.3629
-11.6155
-10.8202
-9.98449
-9.11674
-8.22579
-7.32037
-6.40912
-5.49982
-4.59977
-3.71502
-2.85108
-2.01223
-1.20192
-0.422771
0.323608
1.03642
1.71511
2.36092
2.97449
3.55634
4.10753
4.62953
5.12401
5.59245
6.03652
6.45758
6.85717
7.23663
7.59745
7.94082
8.268
8.58004
8.87801
9.16277
9.43525
9.69616
9.94624
10.1861
10.4163
10.6373
10.8496
11.0536
11.2498
11.4385
11.6199
11.7944
11.9621
12.1234
12.2784
12.4275
12.5708
12.7086
12.8409
12.968
13.0901
13.2073
13.3197
13.4277
13.5312
13.6306
13.7259
13.8174
13.9052
13.9895
14.0705
14.1482
14.2229
14.2948
14.364
14.4307
14.495
14.5573
14.6175
14.6758
14.7322
14.7869
14.8398
14.891
14.9404
14.9881
15.0341
15.0785
15.1212
15.162
15.201
15.238
15.2728
15.3051
15.3347
15.3616
15.3861
15.4087
15.4296
15.4492
15.4674
15.4839
15.4984
15.5105
15.5198
15.526
15.5287
15.5268
15.5205
15.509
15.491
15.4627
15.4229
15.3565
-6.29118
-6.31556
-6.34566
-6.38206
-6.42572
-6.47723
-6.53682
-6.60525
-6.68295
-6.77046
-6.86757
-6.97441
-7.09062
-7.21606
-7.35011
-7.49248
-7.64253
-7.79995
-7.96426
-8.13512
-8.31212
-8.49505
-8.68363
-8.87772
-9.07707
-9.28163
-9.49125
-9.70594
-9.92556
-10.1501
-10.3795
-10.6138
-10.8526
-11.0961
-11.3438
-11.5957
-11.8514
-12.1106
-12.3728
-12.6378
-12.9046
-13.173
-13.4419
-13.7109
-13.9786
-14.2443
-14.5065
-14.7643
-15.0157
-15.2596
-15.4937
-15.7163
-15.9249
-16.1172
-16.2901
-16.4408
-16.5657
-16.661
-16.7225
-16.7457
-16.726
-16.6588
-16.5392
-16.3625
-16.1246
-15.8215
-15.4505
-15.0099
-14.4992
-13.9195
-13.2734
-12.5649
-11.7998
-10.985
-10.1288
-9.24038
-8.32903
-7.40436
-6.47525
-5.55017
-4.63621
-3.73994
-2.86659
-2.02049
-1.20498
-0.422536
0.32608
1.03901
1.71761
2.36183
2.97332
3.55251
4.10083
4.61975
5.11118
5.5765
6.01762
6.43571
6.83264
7.20951
7.56814
7.90943
8.23487
8.54526
8.84193
9.12549
9.39709
9.6572
9.90678
10.1462
10.3761
10.5969
10.8093
11.0135
11.21
11.3989
11.5808
11.7557
11.924
12.0859
12.2417
12.3914
12.5356
12.6741
12.8074
12.9353
13.0584
13.1765
13.29
13.3989
13.5034
13.6038
13.7001
13.7926
13.8815
13.9668
14.0488
14.1276
14.2033
14.2762
14.3465
14.4143
14.4798
14.5431
14.6043
14.6636
14.721
14.7766
14.8303
14.8822
14.9323
14.9806
15.0271
15.0717
15.1146
15.1554
15.1942
15.2308
15.2648
15.2962
15.3247
15.3505
15.374
15.3956
15.4158
15.4349
15.4528
15.4694
15.4841
15.4966
15.5062
15.5127
15.5154
15.5133
15.5061
15.4931
15.473
15.4423
15.4009
15.334
-6.2459
-6.25598
-6.27381
-6.29891
-6.33313
-6.37661
-6.42887
-6.4906
-6.56187
-6.64324
-6.73453
-6.83599
-6.94714
-7.06809
-7.19822
-7.33736
-7.48487
-7.64042
-7.80351
-7.97388
-8.15097
-8.33464
-8.52457
-8.72056
-8.92238
-9.12999
-9.34318
-9.56192
-9.78601
-10.0155
-10.2501
-10.49
-10.7347
-10.9845
-11.2387
-11.4975
-11.7603
-12.0272
-12.2971
-12.5704
-12.8457
-13.1232
-13.4014
-13.6802
-13.9579
-14.2342
-14.5073
-14.7763
-15.0394
-15.2952
-15.5416
-15.7769
-15.9984
-16.2038
-16.39
-16.554
-16.692
-16.8003
-16.8741
-16.9092
-16.9002
-16.8424
-16.7305
-16.5597
-16.3253
-16.0232
-15.6503
-15.2048
-14.6862
-14.0957
-13.436
-12.7119
-11.9294
-11.0962
-10.2213
-9.3145
-8.38582
-7.44546
-6.50243
-5.56574
-4.64216
-3.7388
-2.86008
-2.0111
-1.19409
-0.411537
0.335434
1.0469
1.7223
2.36342
2.97106
3.54634
4.09071
4.60598
5.09374
5.55575
5.99355
6.40883
6.80296
7.17756
7.53396
7.87347
8.19721
8.50634
8.80176
9.08446
9.35523
9.61487
9.86397
10.1031
10.3329
10.5538
10.7663
10.9708
11.1676
11.357
11.5393
11.7148
11.8837
12.0464
12.2029
12.3536
12.4986
12.6381
12.7722
12.9012
13.0252
13.1444
13.2589
13.3689
13.4745
13.5759
13.6734
13.767
13.857
13.9434
14.0265
14.1064
14.1833
14.2573
14.3287
14.3976
14.4642
14.5286
14.5908
14.6511
14.7094
14.7658
14.8203
14.8729
14.9236
14.9724
15.0193
15.0642
15.1071
15.1478
15.1862
15.2222
15.2554
15.2858
15.3133
15.3381
15.3608
15.3817
15.4015
15.4204
15.4384
15.4551
15.4702
15.4831
15.4932
15.4999
15.5027
15.5005
15.4928
15.4786
15.4567
15.424
15.3811
15.3133
-6.17081
-6.16616
-6.17263
-6.18774
-6.21277
-6.24777
-6.29214
-6.34651
-6.41103
-6.48609
-6.5715
-6.66765
-6.77418
-6.89117
-7.01803
-7.15457
-7.30024
-7.45466
-7.61727
-7.78785