/*--------------------------------*- C++ -*----------------------------------*\
| =========                 |                                                 |
| \\      /  F ield         | OpenFOAM: The Open Source CFD Toolbox           |
|  \\    /   O peration     | Version:  2212                                  |
|   \\  /    A nd           | Website:  www.openfoam.com                      |
|    \\/     M anipulation  |                                                 |
\*---------------------------------------------------------------------------*/
FoamFile
{
    version     2.0;
    format      ascii;
    arch        "LSB;label=32;scalar=64";
    class       surfaceScalarField;
    location    "50";
    object      phi;
}
// * * * * * * * * * * * * * * * * * * * * * * * * * * * * * * * * * * * * * //

dimensions      [0 3 -1 0 0 0 0];

oriented        oriented;

internalField   nonuniform List<scalar> 
24170
(
3.11499e-06
7.34125e-08
3.01249e-06
1.02506e-07
2.91645e-06
9.604e-08
2.82452e-06
9.19325e-08
2.73748e-06
8.70505e-08
2.65861e-06
7.88772e-08
2.58918e-06
6.94329e-08
2.52851e-06
6.06695e-08
2.47535e-06
5.31653e-08
2.42852e-06
4.68325e-08
2.38703e-06
4.14935e-08
2.35003e-06
3.70122e-08
2.31676e-06
3.32735e-08
2.28651e-06
3.02547e-08
2.25871e-06
2.78016e-08
2.23261e-06
2.60989e-08
2.20714e-06
2.54612e-08
2.34324e-08
2.18369e-06
3.46861e-06
2.20512e-08
3.48671e-06
8.43989e-08
3.49324e-06
8.95126e-08
3.49181e-06
9.33703e-08
3.48338e-06
9.54922e-08
3.4692e-06
9.30679e-08
3.45051e-06
8.81428e-08
3.42844e-06
8.27585e-08
3.4041e-06
7.75205e-08
3.37845e-06
7.25012e-08
3.35219e-06
6.77732e-08
3.32575e-06
6.34798e-08
3.29937e-06
5.96656e-08
3.27328e-06
5.63743e-08
3.24756e-06
5.35357e-08
3.22235e-06
5.13313e-08
3.19829e-06
4.95253e-08
4.65166e-08
3.17522e-06
3.66797e-06
1.65956e-08
3.68013e-06
7.22462e-08
3.68955e-06
8.00941e-08
3.69919e-06
8.37177e-08
3.70784e-06
8.68539e-08
3.71439e-06
8.65168e-08
3.71868e-06
8.38441e-08
3.72087e-06
8.05676e-08
3.72118e-06
7.72134e-08
3.71987e-06
7.38064e-08
3.71719e-06
7.04542e-08
3.71331e-06
6.73582e-08
3.70835e-06
6.46246e-08
3.70244e-06
6.22872e-08
3.69565e-06
6.03279e-08
3.68822e-06
5.87494e-08
3.68022e-06
5.75152e-08
5.58331e-08
3.6709e-06
3.9249e-06
1.70844e-08
3.93529e-06
6.18587e-08
3.94254e-06
7.28551e-08
3.94912e-06
7.71478e-08
3.95526e-06
8.07238e-08
3.96039e-06
8.13926e-08
3.96454e-06
7.97097e-08
3.96788e-06
7.72366e-08
3.97052e-06
7.45859e-08
3.97251e-06
7.18294e-08
3.9739e-06
6.9088e-08
3.97469e-06
6.65751e-08
3.97492e-06
6.44159e-08
3.97458e-06
6.26382e-08
3.9737e-06
6.12213e-08
3.97232e-06
6.014e-08
3.97032e-06
5.95199e-08
5.90903e-08
3.96707e-06
4.20764e-06
1.65764e-08
4.21579e-06
5.37108e-08
4.22162e-06
6.70153e-08
4.22662e-06
7.21482e-08
4.23146e-06
7.58847e-08
4.23574e-06
7.7112e-08
4.23935e-06
7.60971e-08
4.2424e-06
7.41803e-08
4.24496e-06
7.20179e-08
4.24706e-06
6.97288e-08
4.2487e-06
6.74435e-08
4.24991e-06
6.53609e-08
4.25071e-06
6.36187e-08
4.25109e-06
6.22508e-08
4.25107e-06
6.12425e-08
4.25061e-06
6.05944e-08
4.24969e-06
6.04327e-08
6.05807e-08
4.2482e-06
4.51033e-06
1.5339e-08
4.51681e-06
4.72403e-08
4.52214e-06
6.16947e-08
4.52674e-06
6.75527e-08
4.53123e-06
7.14095e-08
4.53528e-06
7.30663e-08
4.53874e-06
7.26517e-08
4.54166e-06
7.12652e-08
4.54413e-06
6.95598e-08
4.54615e-06
6.77099e-08
4.54776e-06
6.58493e-08
4.54896e-06
6.4165e-08
4.5498e-06
6.27957e-08
4.55027e-06
6.17861e-08
4.55038e-06
6.1134e-08
4.55013e-06
6.08513e-08
4.54953e-06
6.10335e-08
6.15944e-08
4.54851e-06
4.83406e-06
1.40044e-08
4.83957e-06
4.17247e-08
4.8448e-06
5.64701e-08
4.84937e-06
6.29764e-08
4.85374e-06
6.70379e-08
4.85772e-06
6.90864e-08
4.86114e-06
6.92257e-08
4.86405e-06
6.83511e-08
4.86651e-06
6.70902e-08
4.86855e-06
6.56657e-08
4.87018e-06
6.42206e-08
4.87142e-06
6.29255e-08
4.8723e-06
6.19148e-08
4.87284e-06
6.12419e-08
4.87306e-06
6.09157e-08
4.87295e-06
6.09553e-08
4.87253e-06
6.14426e-08
6.23601e-08
4.87176e-06
5.18086e-06
1.27246e-08
5.1857e-06
3.69001e-08
5.19081e-06
5.13755e-08
5.19538e-06
5.84123e-08
5.19971e-06
6.27192e-08
5.20369e-06
6.51113e-08
5.20717e-06
6.57517e-08
5.21016e-06
6.5368e-08
5.21271e-06
6.45464e-08
5.21484e-06
6.35393e-08
5.21657e-06
6.25034e-08
5.21791e-06
6.15925e-08
5.2189e-06
6.09349e-08
5.21956e-06
6.05846e-08
5.21991e-06
6.0562e-08
5.21998e-06
6.08908e-08
5.21977e-06
6.16462e-08
6.28017e-08
5.21933e-06
5.55258e-06
1.14876e-08
5.55685e-06
3.26304e-08
5.56173e-06
4.64852e-08
5.56627e-06
5.38683e-08
5.57059e-06
5.84018e-08
5.57462e-06
6.10792e-08
5.57821e-06
6.2159e-08
5.58133e-06
6.22459e-08
5.58402e-06
6.18586e-08
5.58629e-06
6.12621e-08
5.58817e-06
6.06237e-08
5.58967e-06
6.00916e-08
5.59083e-06
5.97808e-08
5.59167e-06
5.97436e-08
5.59222e-06
6.0006e-08
5.59252e-06
6.05962e-08
5.59259e-06
6.15688e-08
6.28847e-08
5.59251e-06
5.95097e-06
1.02955e-08
5.95475e-06
2.88602e-08
5.95938e-06
4.18737e-08
5.96386e-06
4.94018e-08
5.96817e-06
5.4102e-08
5.97225e-06
5.70032e-08
5.97596e-06
5.84609e-08
5.97923e-06
5.89893e-08
5.98207e-06
5.90216e-08
5.98453e-06
5.88171e-08
5.9866e-06
5.85542e-08
5.98832e-06
5.83846e-08
5.9897e-06
5.84058e-08
5.99078e-06
5.86677e-08
5.99159e-06
5.9192e-08
5.99218e-06
6.00073e-08
5.9926e-06
6.11518e-08
6.2586e-08
5.99291e-06
6.37794e-06
9.16705e-09
6.38132e-06
2.54809e-08
6.38568e-06
3.7519e-08
6.39007e-06
4.50069e-08
6.39438e-06
4.98015e-08
6.39851e-06
5.28709e-08
6.40233e-06
5.46471e-08
6.40575e-06
5.5574e-08
6.40877e-06
5.60015e-08
6.41143e-06
5.61638e-08
6.41374e-06
5.6253e-08
6.4157e-06
5.64184e-08
6.41736e-06
5.67556e-08
6.41874e-06
5.72896e-08
6.41987e-06
5.80525e-08
6.42082e-06
5.90573e-08
6.42164e-06
6.03367e-08
6.18449e-08
6.42239e-06
5.74174e-06
8.26249e-09
5.74432e-06
2.29022e-08
5.74781e-06
3.40455e-08
5.75146e-06
4.13585e-08
5.75509e-06
4.61798e-08
5.75861e-06
4.93569e-08
5.76191e-06
5.13491e-08
5.76493e-06
5.25583e-08
5.76765e-06
5.32862e-08
5.77007e-06
5.37431e-08
5.77221e-06
5.41114e-08
5.77409e-06
5.45451e-08
5.77573e-06
5.51074e-08
5.77716e-06
5.58546e-08
5.77843e-06
5.67799e-08
5.77956e-06
5.79229e-08
5.7806e-06
5.92819e-08
6.08342e-08
5.78163e-06
6.99913e-06
7.2953e-09
7.00187e-06
2.01651e-08
7.00564e-06
3.02719e-08
7.00973e-06
3.72706e-08
7.01388e-06
4.20387e-08
7.01796e-06
4.52813e-08
7.02185e-06
4.74649e-08
7.02546e-06
4.89554e-08
7.02876e-06
4.99893e-08
7.03175e-06
5.07477e-08
7.03446e-06
5.14075e-08
7.0369e-06
5.21019e-08
7.03909e-06
5.29157e-08
7.04107e-06
5.38602e-08
7.04289e-06
5.49624e-08
7.04458e-06
5.62152e-08
7.04622e-06
5.7648e-08
5.91912e-08
7.04786e-06
8.53187e-06
6.27114e-09
8.53475e-06
1.72841e-08
8.5388e-06
2.62242e-08
8.54335e-06
3.27177e-08
8.54807e-06
3.73307e-08
8.55278e-06
4.0572e-08
8.55734e-06
4.29007e-08
8.56166e-06
4.46342e-08
8.56569e-06
4.5965e-08
8.56941e-06
4.70201e-08
8.57286e-06
4.79671e-08
8.57604e-06
4.89198e-08
8.57899e-06
4.99655e-08
8.58174e-06
5.11089e-08
8.58432e-06
5.23632e-08
8.58682e-06
5.37166e-08
8.58927e-06
5.51741e-08
5.66851e-08
8.5918e-06
1.04003e-05
5.20594e-09
1.04033e-05
1.42602e-08
1.04076e-05
2.18973e-08
1.04127e-05
2.76734e-08
1.0418e-05
3.1976e-08
1.04235e-05
3.51444e-08
1.04288e-05
3.75288e-08
1.0434e-05
3.944e-08
1.0439e-05
4.10122e-08
1.04436e-05
4.2354e-08
1.0448e-05
4.35521e-08
1.04522e-05
4.4753e-08
1.04562e-05
4.59883e-08
1.046e-05
4.73139e-08
1.04637e-05
4.86817e-08
1.04673e-05
5.01102e-08
1.04709e-05
5.15613e-08
5.30135e-08
1.04745e-05
1.26779e-05
4.07769e-09
1.26811e-05
1.10729e-08
1.26858e-05
1.72473e-08
1.26913e-05
2.20807e-08
1.26975e-05
2.58724e-08
1.27038e-05
2.88245e-08
1.27101e-05
3.11647e-08
1.27164e-05
3.31353e-08
1.27226e-05
3.48779e-08
1.27285e-05
3.64277e-08
1.27342e-05
3.786e-08
1.27397e-05
3.92395e-08
1.27451e-05
4.06508e-08
1.27503e-05
4.20858e-08
1.27554e-05
4.35517e-08
1.27605e-05
4.49992e-08
1.27657e-05
4.64401e-08
4.77974e-08
1.27708e-05
1.54544e-05
2.86494e-09
1.54578e-05
7.63925e-09
1.5463e-05
1.21176e-08
1.54693e-05
1.57755e-08
1.54763e-05
1.88085e-08
1.54838e-05
2.13469e-08
1.54915e-05
2.34917e-08
1.54992e-05
2.53948e-08
1.55069e-05
2.71717e-08
1.55145e-05
2.88438e-08
1.5522e-05
3.04237e-08
1.55293e-05
3.19456e-08
1.55365e-05
3.34593e-08
1.55436e-05
3.49733e-08
1.55507e-05
3.64751e-08
1.55577e-05
3.79266e-08
1.55648e-05
3.93179e-08
4.06132e-08
1.55721e-05
1.8839e-05
1.50324e-09
1.88429e-05
3.75852e-09
1.88488e-05
6.20937e-09
1.88562e-05
8.38626e-09
1.88646e-05
1.03749e-08
1.88738e-05
1.22418e-08
1.88832e-05
1.40006e-08
1.8893e-05
1.56853e-08
1.89028e-05
1.73502e-08
1.89126e-05
1.90035e-08
1.89224e-05
2.06348e-08
1.89322e-05
2.22361e-08
1.89418e-05
2.38169e-08
1.89514e-05
2.53698e-08
1.8961e-05
2.68818e-08
1.89706e-05
2.83272e-08
1.89802e-05
2.96902e-08
3.09542e-08
1.89899e-05
2.2965e-05
-1.84759e-10
2.29697e-05
-9.54469e-10
2.2977e-05
-1.06369e-09
2.29862e-05
-8.15658e-10
2.29969e-05
-2.20964e-10
2.30084e-05
6.70078e-10
2.30206e-05
1.81364e-09
2.30332e-05
3.11587e-09
2.3046e-05
4.5365e-09
2.3059e-05
6.05075e-09
2.3072e-05
7.6544e-09
2.3085e-05
9.29259e-09
2.30978e-05
1.09346e-08
2.31107e-05
1.25316e-08
2.31235e-05
1.40724e-08
2.31363e-05
1.5534e-08
2.3149e-05
1.69117e-08
1.82033e-08
2.31618e-05
1.68121e-05
-1.54029e-09
1.68158e-05
-4.7072e-09
1.68217e-05
-6.89133e-09
1.6829e-05
-8.17782e-09
1.68375e-05
-8.6613e-09
1.68467e-05
-8.49651e-09
1.68563e-05
-7.8402e-09
1.68663e-05
-6.81191e-09
1.68764e-05
-5.57368e-09
1.68866e-05
-4.13139e-09
1.68968e-05
-2.56623e-09
1.6907e-05
-8.82431e-10
1.69171e-05
7.94875e-10
1.69272e-05
2.46736e-09
1.69372e-05
4.05374e-09
1.69472e-05
5.59326e-09
1.6957e-05
7.02847e-09
8.41756e-09
1.69669e-05
1.46359e-05
-2.83842e-09
1.46395e-05
-8.36891e-09
1.46453e-05
-1.26095e-08
1.46524e-05
-1.53059e-08
1.46604e-05
-1.66835e-08
1.46691e-05
-1.71508e-08
1.46782e-05
-1.6898e-08
1.46875e-05
-1.61217e-08
1.46969e-05
-1.49772e-08
1.47064e-05
-1.35788e-08
1.47158e-05
-1.19652e-08
1.47251e-05
-1.02374e-08
1.47344e-05
-8.4623e-09
1.47436e-05
-6.7225e-09
1.47527e-05
-5.03066e-09
1.47617e-05
-3.41755e-09
1.47706e-05
-1.87482e-09
-4.10654e-10
1.47794e-05
1.27413e-05
-4.02555e-09
1.2745e-05
-1.20195e-08
1.27508e-05
-1.84193e-08
1.27578e-05
-2.22982e-08
1.27655e-05
-2.43334e-08
1.27736e-05
-2.53034e-08
1.27821e-05
-2.53991e-08
1.27908e-05
-2.47913e-08
1.27995e-05
-2.37029e-08
1.28083e-05
-2.22712e-08
1.28169e-05
-2.05827e-08
1.28254e-05
-1.87498e-08
1.28338e-05
-1.68578e-08
1.28421e-05
-1.49997e-08
1.28502e-05
-1.31849e-08
1.28583e-05
-1.14524e-08
1.28662e-05
-9.78798e-09
-8.19521e-09
1.2874e-05
1.10919e-05
-4.96533e-09
1.10955e-05
-1.56692e-08
1.11016e-05
-2.44745e-08
1.11085e-05
-2.92144e-08
1.11158e-05
-3.16528e-08
1.11235e-05
-3.29956e-08
1.11314e-05
-3.33135e-08
1.11394e-05
-3.27737e-08
1.11474e-05
-3.16742e-08
1.11553e-05
-3.01853e-08
1.11632e-05
-2.84063e-08
1.11709e-05
-2.64422e-08
1.11785e-05
-2.44262e-08
1.11859e-05
-2.24189e-08
1.11932e-05
-2.04844e-08
1.12004e-05
-1.86108e-08
1.12074e-05
-1.68375e-08
-1.51268e-08
1.12143e-05
9.65579e-06
-5.54501e-09
9.65957e-06
-1.94445e-08
9.66575e-06
-3.06475e-08
9.67238e-06
-3.58393e-08
9.67937e-06
-3.86456e-08
9.68672e-06
-4.03376e-08
9.69413e-06
-4.07244e-08
9.70147e-06
-4.01087e-08
9.70872e-06
-3.89153e-08
9.71586e-06
-3.73291e-08
9.72289e-06
-3.54268e-08
9.72978e-06
-3.33249e-08
9.73653e-06
-3.11596e-08
9.74313e-06
-2.90213e-08
9.74961e-06
-2.69508e-08
9.75596e-06
-2.49626e-08
9.76219e-06
-2.30652e-08
-2.12134e-08
9.76828e-06
8.40507e-06
-5.25805e-09
8.40982e-06
-2.4198e-08
8.4158e-06
-3.6632e-08
8.42165e-06
-4.16784e-08
8.42813e-06
-4.51313e-08
8.43512e-06
-4.73196e-08
8.44215e-06
-4.77522e-08
8.44906e-06
-4.70167e-08
8.45583e-06
-4.56889e-08
8.46246e-06
-4.3955e-08
8.46891e-06
-4.18785e-08
8.47518e-06
-3.95865e-08
8.48127e-06
-3.72384e-08
8.48719e-06
-3.49387e-08
8.49297e-06
-3.27252e-08
8.49861e-06
-3.06115e-08
8.50417e-06
-2.86085e-08
-2.67014e-08
8.50966e-06
7.31375e-06
-1.72023e-09
7.32111e-06
-3.1559e-08
7.32745e-06
-4.29743e-08
7.33296e-06
-4.71856e-08
7.33916e-06
-5.1324e-08
7.34577e-06
-5.39384e-08
7.35241e-06
-5.4383e-08
7.35896e-06
-5.35763e-08
7.36544e-06
-5.21642e-08
7.37177e-06
-5.02871e-08
7.37792e-06
-4.80278e-08
7.38386e-06
-4.55176e-08
7.38959e-06
-4.29624e-08
7.39512e-06
-4.04678e-08
7.40047e-06
-3.80767e-08
7.40566e-06
-3.57939e-08
7.41068e-06
-3.36223e-08
-3.14719e-08
7.41547e-06
6.36061e-06
7.73356e-09
6.37064e-06
-4.15888e-08
6.37892e-06
-5.12592e-08
6.3866e-06
-5.48437e-08
6.39446e-06
-5.91986e-08
6.40194e-06
-6.14186e-08
6.4089e-06
-6.13403e-08
6.41551e-06
-6.01867e-08
6.42188e-06
-5.85343e-08
6.42801e-06
-5.64213e-08
6.43389e-06
-5.38955e-08
6.43951e-06
-5.11467e-08
6.44489e-06
-4.83341e-08
6.45002e-06
-4.55922e-08
6.4549e-06
-4.29618e-08
6.45957e-06
-4.04605e-08
6.46406e-06
-3.81151e-08
-3.58929e-08
6.46852e-06
5.53927e-06
1.39312e-08
5.54783e-06
-5.01527e-08
5.55644e-06
-5.9862e-08
5.56712e-06
-6.55205e-08
5.57885e-06
-7.09324e-08
5.59e-06
-7.258e-08
5.60002e-06
-7.13591e-08
5.60886e-06
-6.90308e-08
5.61657e-06
-6.62422e-08
5.62323e-06
-6.30692e-08
5.62894e-06
-5.96033e-08
5.63381e-06
-5.60156e-08
5.63792e-06
-5.24544e-08
5.64136e-06
-4.90275e-08
5.64418e-06
-4.57814e-08
5.64649e-06
-4.27747e-08
5.64839e-06
-3.99878e-08
-3.75254e-08
5.65003e-06
4.87149e-06
-2.99535e-08
4.88654e-06
-6.51997e-08
4.89745e-06
-7.07729e-08
4.9065e-06
-7.45611e-08
4.91387e-06
-7.83062e-08
4.9186e-06
-7.73199e-08
4.92006e-06
-7.28152e-08
4.91806e-06
-6.70415e-08
4.91291e-06
-6.10847e-08
4.90513e-06
-5.52814e-08
4.89532e-06
-4.9789e-08
4.884e-06
-4.46991e-08
4.8716e-06
-4.00585e-08
4.85845e-06
-3.58814e-08
4.84483e-06
-3.21651e-08
4.83099e-06
-2.89297e-08
4.81721e-06
-2.61921e-08
-2.44635e-08
4.80417e-06
4.17272e-06
4.10752e-06
4.03675e-06
3.96219e-06
3.88388e-06
3.80656e-06
3.73375e-06
3.66671e-06
3.60562e-06
3.55034e-06
3.50055e-06
3.45585e-06
3.41579e-06
3.37991e-06
3.34775e-06
3.31882e-06
3.29263e-06
3.26817e-06
7.43269e-08
-7.42382e-08
2.46216e-07
-1.71591e-07
4.19951e-07
-1.73791e-07
5.71531e-07
-1.51517e-07
6.93731e-07
-1.22311e-07
7.84286e-07
-9.05269e-08
8.41898e-07
-5.77653e-08
8.66565e-07
-2.4508e-08
8.58217e-07
8.18541e-09
8.21433e-07
3.71336e-08
7.62826e-07
5.84249e-08
6.93553e-07
6.97328e-08
6.22184e-07
7.11127e-08
5.56503e-07
6.60607e-08
4.95118e-07
6.09402e-08
4.35116e-07
6.02218e-08
3.70392e-07
6.39645e-08
2.98706e-07
7.20802e-08
2.12166e-07
8.55629e-08
1.09451e-07
1.03871e-07
-1.61954e-08
1.24761e-07
-1.64739e-07
1.50158e-07
-3.39935e-07
1.74626e-07
-5.32799e-07
1.94178e-07
-7.41605e-07
2.08453e-07
-9.58893e-07
2.18102e-07
-1.18263e-06
2.23361e-07
-1.40706e-06
2.24809e-07
-1.63034e-06
2.22978e-07
-1.84876e-06
2.18511e-07
-2.061e-06
2.12e-07
-2.26519e-06
2.04129e-07
-2.46069e-06
1.95389e-07
-2.64705e-06
1.86226e-07
-2.82401e-06
1.76965e-07
-2.99201e-06
1.67848e-07
-3.15097e-06
1.59056e-07
-3.30181e-06
1.50669e-07
-3.44442e-06
1.4277e-07
-3.57996e-06
1.35334e-07
-3.70816e-06
1.28392e-07
-3.83023e-06
1.21855e-07
-3.94573e-06
1.15731e-07
-4.05584e-06
1.09897e-07
-4.15989e-06
1.04359e-07
-4.25905e-06
9.89697e-08
-4.35247e-06
9.37508e-08
-4.44123e-06
8.85442e-08
-4.52425e-06
8.33796e-08
-4.60265e-06
7.80994e-08
-4.67512e-06
7.27722e-08
-4.74276e-06
6.72158e-08
-4.80406e-06
6.1528e-08
-4.86007e-06
5.5543e-08
-4.90909e-06
4.93534e-08
-4.95227e-06
4.2709e-08
-4.98768e-06
3.57326e-08
-5.0164e-06
2.82575e-08
-5.03652e-06
2.05728e-08
-5.04958e-06
1.26367e-08
-5.05414e-06
4.99324e-09
-5.05218e-06
-2.24555e-09
-5.04258e-06
-8.9886e-09
-5.02693e-06
-1.57664e-08
-5.00382e-06
-2.24314e-08
-4.97464e-06
-2.92377e-08
-4.93802e-06
-3.59954e-08
-4.8952e-06
-4.29026e-08
-4.84485e-06
-4.9847e-08
-4.78834e-06
-5.66148e-08
-4.72488e-06
-6.30476e-08
-4.6547e-06
-7.02463e-08
-4.57788e-06
-7.64903e-08
-4.49603e-06
-8.1815e-08
-4.40739e-06
-8.83529e-08
-4.31307e-06
-9.41231e-08
-4.21446e-06
-9.83375e-08
-4.11006e-06
-1.04049e-07
-4.00133e-06
-1.08518e-07
-3.88959e-06
-1.11195e-07
-3.77413e-06
-1.15213e-07
-3.65457e-06
-1.18864e-07
-3.53389e-06
-1.2054e-07
-3.4106e-06
-1.22392e-07
-3.28632e-06
-1.24027e-07
-3.16075e-06
-1.24644e-07
-3.03475e-06
-1.25944e-07
-2.90919e-06
-1.25478e-07
-2.78443e-06
-1.25358e-07
-2.66062e-06
-1.25083e-07
-2.53761e-06
-1.23972e-07
-2.41517e-06
-1.23139e-07
-2.2943e-06
-1.21313e-07
-2.17492e-06
-1.19779e-07
-2.05746e-06
-1.17731e-07
-1.94208e-06
-1.15624e-07
-1.82881e-06
-1.13372e-07
-1.71785e-06
-1.11025e-07
-1.60916e-06
-1.08612e-07
-1.50286e-06
-1.06147e-07
-1.39889e-06
-1.03669e-07
-1.29724e-06
-1.01149e-07
-1.19791e-06
-9.86449e-08
-1.10089e-06
-9.61053e-08
-1.00632e-06
-9.36524e-08
-9.14151e-07
-9.12211e-08
-8.24457e-07
-8.89348e-08
-7.37081e-07
-8.67156e-08
-6.52004e-07
-8.4639e-08
-5.69052e-07
-8.26088e-08
-4.8818e-07
-8.07068e-08
-4.09216e-07
-7.88615e-08
-3.32112e-07
-7.71344e-08
-2.56748e-07
-7.54418e-08
-1.83036e-07
-7.38764e-08
-1.10867e-07
-7.23562e-08
-4.03256e-08
-7.07856e-08
2.85479e-08
-6.9167e-08
9.60976e-08
-6.79233e-08
1.62411e-07
-6.66455e-08
2.27286e-07
-6.51118e-08
2.90711e-07
-6.35149e-08
3.52626e-07
-6.19555e-08
4.13027e-07
-6.04126e-08
4.71876e-07
-5.89368e-08
5.29263e-07
-5.74898e-08
5.85199e-07
-5.61086e-08
6.39804e-07
-5.47732e-08
6.93067e-07
-5.34789e-08
7.45049e-07
-5.21812e-08
7.95721e-07
-5.09075e-08
8.45137e-07
-4.96328e-08
8.93305e-07
-4.84108e-08
9.40309e-07
-4.72286e-08
9.86131e-07
-4.60634e-08
1.03079e-06
-4.48869e-08
1.07429e-06
-4.37314e-08
1.11668e-06
-4.26297e-08
1.15799e-06
-4.15726e-08
1.19822e-06
-4.05334e-08
1.23741e-06
-3.94863e-08
1.27556e-06
-3.84478e-08
1.31269e-06
-3.74099e-08
1.34878e-06
-3.63795e-08
1.38388e-06
-3.53646e-08
1.41799e-06
-3.4366e-08
1.45109e-06
-3.33408e-08
1.48317e-06
-3.23031e-08
1.51428e-06
-3.1302e-08
1.54447e-06
-3.03671e-08
1.57375e-06
-2.94156e-08
1.60201e-06
-2.83759e-08
1.62915e-06
-2.72167e-08
1.65497e-06
-2.58662e-08
1.67912e-06
-2.41748e-08
1.70121e-06
-2.2074e-08
1.72085e-06
-1.96164e-08
1.73784e-06
-1.69445e-08
1.75217e-06
-1.42847e-08
1.76419e-06
-1.1979e-08
1.77463e-06
-1.0417e-08
1.78446e-06
-9.82136e-09
1.7945e-06
-1.00491e-08
1.80505e-06
-1.05935e-08
1.8159e-06
-1.09255e-08
1.82661e-06
-1.08267e-08
1.8368e-06
-1.03162e-08
1.84616e-06
-9.54232e-09
1.85448e-06
-8.50285e-09
1.8615e-06
-7.24728e-09
1.86729e-06
-6.01025e-09
1.87185e-06
-4.81031e-09
1.87503e-06
-3.38975e-09
1.87634e-06
-1.54525e-09
1.87467e-06
1.46262e-09
1.86785e-06
6.62676e-09
1.85225e-06
1.54312e-08
1.82171e-06
3.03742e-08
1.76037e-06
6.12092e-08
1.0766e-07
1.65259e-06
1.75574e-07
-2.49685e-07
3.18062e-07
-3.13906e-07
4.17132e-07
-2.72851e-07
4.83872e-07
-2.1822e-07
5.26119e-07
-1.64596e-07
5.48855e-07
-1.13243e-07
5.55044e-07
-6.40073e-08
5.47676e-07
-1.70396e-08
5.2845e-07
2.73614e-08
4.9743e-07
6.83762e-08
4.52099e-07
1.03702e-07
3.9142e-07
1.30703e-07
3.13659e-07
1.48764e-07
2.18883e-07
1.61053e-07
1.05031e-07
1.7457e-07
-2.99732e-08
1.95266e-07
-1.9059e-07
2.24294e-07
-3.7745e-07
2.58937e-07
-5.87911e-07
2.95836e-07
-8.15888e-07
3.31996e-07
-1.05631e-06
3.65108e-07
-1.29937e-06
3.93494e-07
-1.53984e-06
4.15087e-07
-1.77404e-06
4.28685e-07
-1.99992e-06
4.34341e-07
-2.21451e-06
4.32906e-07
-2.41673e-06
4.25548e-07
-2.60532e-06
4.13503e-07
-2.7805e-06
3.98097e-07
-2.94259e-06
3.80614e-07
-3.09261e-06
3.61961e-07
-3.23143e-06
3.42919e-07
-3.36014e-06
3.2406e-07
-3.47976e-06
3.058e-07
-3.5912e-06
2.88406e-07
-3.69543e-06
2.72023e-07
-3.79306e-06
2.56715e-07
-3.88492e-06
2.42464e-07
-3.97132e-06
2.29221e-07
-4.05295e-06
2.1689e-07
-4.12988e-06
2.05377e-07
-4.20266e-06
1.94553e-07
-4.27117e-06
1.84312e-07
-4.33585e-06
1.74519e-07
-4.39647e-06
1.65079e-07
-4.45339e-06
1.55863e-07
-4.50631e-06
1.46792e-07
-4.55556e-06
1.37756e-07
-4.60075e-06
1.28703e-07
-4.64222e-06
1.19533e-07
-4.67958e-06
1.10217e-07
-4.71318e-06
1.00686e-07
-4.74252e-06
9.09416e-08
-4.76799e-06
8.09147e-08
-4.78916e-06
7.06149e-08
-4.80656e-06
5.99771e-08
-4.81979e-06
4.90534e-08
-4.82943e-06
3.78138e-08
-4.8351e-06
2.63476e-08
-4.83717e-06
1.46162e-08
-4.83472e-06
2.65997e-09
-4.82731e-06
-9.67884e-09
-4.81375e-06
-2.23448e-08
-4.79413e-06
-3.53242e-08
-4.76781e-06
-4.85003e-08
-4.73503e-06
-6.19235e-08
-4.69533e-06
-7.54702e-08
-4.64903e-06
-8.91289e-08
-4.59591e-06
-1.02779e-07
-4.5361e-06
-1.16356e-07
-4.46928e-06
-1.29713e-07
-4.39654e-06
-1.42911e-07
-4.31734e-06
-1.55551e-07
-4.23144e-06
-1.67612e-07
-4.14038e-06
-1.79261e-07
-4.04407e-06
-1.90264e-07
-3.9419e-06
-2.00345e-07
-3.83592e-06
-2.0984e-07
-3.72588e-06
-2.18371e-07
-3.61114e-06
-2.25674e-07
-3.49379e-06
-2.32357e-07
-3.3743e-06
-2.38068e-07
-3.2521e-06
-2.42516e-07
-3.12805e-06
-2.46068e-07
-3.00308e-06
-2.48706e-07
-2.87695e-06
-2.50403e-07
-2.75141e-06
-2.51318e-07
-2.62559e-06
-2.51237e-07
-2.50077e-06
-2.50638e-07
-2.37712e-06
-2.49281e-07
-2.25431e-06
-2.47282e-07
-2.13304e-06
-2.44688e-07
-2.01302e-06
-2.41469e-07
-1.89506e-06
-2.37827e-07
-1.77904e-06
-2.33776e-07
-1.66521e-06
-2.29462e-07
-1.5536e-06
-2.24907e-07
-1.44434e-06
-2.20201e-07
-1.3374e-06
-2.15368e-07
-1.23287e-06
-2.10488e-07
-1.13066e-06
-2.05567e-07
-1.03081e-06
-2.00646e-07
-9.33197e-07
-1.95735e-07
-8.37902e-07
-1.90868e-07
-7.44865e-07
-1.86096e-07
-6.54145e-07
-1.81456e-07
-5.65628e-07
-1.77008e-07
-4.79304e-07
-1.72737e-07
-3.9503e-07
-1.6866e-07
-3.12748e-07
-1.64753e-07
-2.32323e-07
-1.61022e-07
-1.53698e-07
-1.57459e-07
-7.67358e-08
-1.54082e-07
-1.38591e-09
-1.50838e-07
7.24332e-08
-1.47741e-07
1.4471e-07
-1.44714e-07
2.15568e-07
-1.41724e-07
2.85024e-07
-1.38754e-07
3.52779e-07
-1.3582e-07
4.18851e-07
-1.32861e-07
4.83523e-07
-1.29869e-07
5.46851e-07
-1.2688e-07
6.08828e-07
-1.23931e-07
6.69425e-07
-1.21023e-07
7.28641e-07
-1.18182e-07
7.86488e-07
-1.15396e-07
8.42985e-07
-1.12681e-07
8.98145e-07
-1.10026e-07
9.51996e-07
-1.07431e-07
1.00456e-06
-1.04856e-07
1.05584e-06
-1.02309e-07
1.10587e-06
-9.97806e-08
1.15465e-06
-9.73165e-08
1.20221e-06
-9.49195e-08
1.24857e-06
-9.256e-08
1.29377e-06
-9.02178e-08
1.33782e-06
-8.79152e-08
1.38073e-06
-8.56937e-08
1.42253e-06
-8.35366e-08
1.46323e-06
-8.14191e-08
1.50288e-06
-7.9317e-08
1.54151e-06
-7.72587e-08
1.57914e-06
-7.52194e-08
1.61579e-06
-7.32015e-08
1.65146e-06
-7.12006e-08
1.68615e-06
-6.92305e-08
1.71988e-06
-6.72234e-08
1.75262e-06
-6.51937e-08
1.7844e-06
-6.32133e-08
1.81522e-06
-6.13028e-08
1.84503e-06
-5.93243e-08
1.87373e-06
-5.71601e-08
1.90122e-06
-5.47584e-08
1.92731e-06
-5.19893e-08
1.95177e-06
-4.86522e-08
1.97441e-06
-4.46951e-08
1.99511e-06
-4.02869e-08
2.01391e-06
-3.5692e-08
2.03102e-06
-3.13373e-08
2.04684e-06
-2.7739e-08
2.06191e-06
-2.54289e-08
2.07675e-06
-2.46174e-08
2.09173e-06
-2.50113e-08
2.10698e-06
-2.58469e-08
2.1224e-06
-2.63958e-08
2.13777e-06
-2.62704e-08
2.15273e-06
-2.53985e-08
2.1669e-06
-2.38792e-08
2.17996e-06
-2.17673e-08
2.19166e-06
-1.91875e-08
2.20198e-06
-1.65865e-08
2.21085e-06
-1.39752e-08
2.21814e-06
-1.09541e-08
2.2237e-06
-7.4047e-09
2.22759e-06
-2.67885e-09
2.2295e-06
4.46282e-09
2.22838e-06
1.63478e-08
2.22255e-06
3.59989e-08
2.21053e-06
7.30744e-08
1.38614e-07
2.1794e-06
1.31915e-07
-3.81504e-07
1.82123e-07
-3.63969e-07
2.05264e-07
-2.95992e-07
2.1511e-07
-2.2802e-07
2.13428e-07
-1.62941e-07
2.00357e-07
-1.0013e-07
1.75741e-07
-3.94286e-08
1.39862e-07
1.89412e-08
9.23122e-08
7.48832e-08
3.28893e-08
1.27965e-07
-4.06581e-08
1.77228e-07
-1.31639e-07
2.21847e-07
-2.45343e-07
2.62429e-07
-3.85633e-07
3.01433e-07
-5.53276e-07
3.4213e-07
-7.43966e-07
3.85973e-07
-9.51137e-07
4.31346e-07
-1.16697e-06
4.74776e-07
-1.38442e-06
5.13169e-07
-1.59681e-06
5.4447e-07
-1.79934e-06
5.67568e-07
-1.98778e-06
5.82062e-07
-2.16073e-06
5.88017e-07
-2.31791e-06
5.86027e-07
-2.4608e-06
5.77217e-07
-2.59068e-06
5.629e-07
-2.70958e-06
5.44436e-07
-2.81916e-06
5.23143e-07
-2.92125e-06
5.00169e-07
-3.01706e-06
4.76445e-07
-3.10781e-06
4.52687e-07
-3.19433e-06
4.29436e-07
-3.27733e-06
4.07059e-07
-3.35733e-06
3.85783e-07
-3.43465e-06
3.65727e-07
-3.50957e-06
3.46922e-07
-3.58217e-06
3.29337e-07
-3.65264e-06
3.12896e-07
-3.72089e-06
2.97501e-07
-3.78707e-06
2.83028e-07
-3.85103e-06
2.6935e-07
-3.91285e-06
2.56331e-07
-3.97235e-06
2.43839e-07
-4.02961e-06
2.31742e-07
-4.0844e-06
2.1992e-07
-4.13681e-06
2.08252e-07
-4.18657e-06
1.96634e-07
-4.23378e-06
1.84964e-07
-4.27815e-06
1.73156e-07
-4.31975e-06
1.6113e-07
-4.35827e-06
1.48819e-07
-4.39377e-06
1.36159e-07
-4.42587e-06
1.23114e-07
-4.45459e-06
1.0963e-07
-4.47957e-06
9.56724e-08
-4.5008e-06
8.11972e-08
-4.51787e-06
6.61902e-08
-4.53068e-06
5.06199e-08
-4.53876e-06
3.44772e-08
-4.54189e-06
1.77244e-08
-4.53955e-06
3.56571e-10
-4.53157e-06
-1.76542e-08
-4.5176e-06
-3.62502e-08
-4.49752e-06
-5.53602e-08
-4.47103e-06
-7.49003e-08
-4.43808e-06
-9.48188e-08
-4.39847e-06
-1.14995e-07
-4.35221e-06
-1.35322e-07
-4.29923e-06
-1.55673e-07
-4.23959e-06
-1.75928e-07
-4.1733e-06
-1.95914e-07
-4.10063e-06
-2.15492e-07
-4.02165e-06
-2.34433e-07
-3.93662e-06
-2.52543e-07
-3.84607e-06
-2.69709e-07
-3.7503e-06
-2.85915e-07
-3.64948e-06
-3.01039e-07
-3.54432e-06
-3.14885e-07
-3.43513e-06
-3.27432e-07
-3.32219e-06
-3.3847e-07
-3.20635e-06
-3.48057e-07
-3.08812e-06
-3.56149e-07
-2.96777e-06
-3.62705e-07
-2.84585e-06
-3.67788e-07
-2.72294e-06
-3.71413e-07
-2.59945e-06
-3.73681e-07
-2.47601e-06
-3.74595e-07
-2.35293e-06
-3.74316e-07
-2.23073e-06
-3.72979e-07
-2.10973e-06
-3.70634e-07
-1.98988e-06
-3.67342e-07
-1.87144e-06
-3.63134e-07
-1.75465e-06
-3.58214e-07
-1.63977e-06
-3.52595e-07
-1.52694e-06
-3.46481e-07
-1.41627e-06
-3.39959e-07
-1.30785e-06
-3.33143e-07
-1.20173e-06
-3.26106e-07
-1.09793e-06
-3.18936e-07
-9.96447e-07
-3.11696e-07
-8.97249e-07
-3.04436e-07
-8.00322e-07
-2.97202e-07
-7.05584e-07
-2.90012e-07
-6.13074e-07
-2.82939e-07
-5.22714e-07
-2.75998e-07
-4.34541e-07
-2.69283e-07
-3.48431e-07
-2.62805e-07
-2.6437e-07
-2.56601e-07
-1.82213e-07
-2.50644e-07
-1.01913e-07
-2.44969e-07
-2.33232e-08
-2.39535e-07
5.35698e-08
-2.34339e-07
1.28838e-07
-2.29334e-07
2.0248e-07
-2.24509e-07
2.74546e-07
-2.19828e-07
3.45049e-07
-2.15269e-07
4.14071e-07
-2.10799e-07
4.81615e-07
-2.06389e-07
5.47698e-07
-2.01996e-07
6.12361e-07
-1.97613e-07
6.75701e-07
-1.93251e-07
7.37733e-07
-1.88924e-07
7.98462e-07
-1.84644e-07
8.5786e-07
-1.80424e-07
9.15941e-07
-1.76271e-07
9.72696e-07
-1.72188e-07
1.02815e-06
-1.68173e-07
1.0823e-06
-1.64229e-07
1.13515e-06
-1.60345e-07
1.18673e-06
-1.56504e-07
1.23705e-06
-1.52699e-07
1.28613e-06
-1.48933e-07
1.33397e-06
-1.45232e-07
1.38058e-06
-1.41607e-07
1.42598e-06
-1.38041e-07
1.4702e-06
-1.3452e-07
1.51325e-06
-1.31059e-07
1.55515e-06
-1.27685e-07
1.59592e-06
-1.24404e-07
1.63559e-06
-1.21196e-07
1.67422e-06
-1.18059e-07
1.71187e-06
-1.14992e-07
1.74853e-06
-1.11976e-07
1.78424e-06
-1.08988e-07
1.81898e-06
-1.06024e-07
1.85276e-06
-1.0308e-07
1.88559e-06
-1.00121e-07
1.91748e-06
-9.71424e-08
1.94841e-06
-9.42031e-08
1.97836e-06
-9.12948e-08
2.00728e-06
-8.82822e-08
2.03511e-06
-8.50207e-08
2.06175e-06
-8.14215e-08
2.0871e-06
-7.73511e-08
2.11107e-06
-7.26324e-08
2.13363e-06
-6.72503e-08
2.15477e-06
-6.14308e-08
2.17463e-06
-5.55408e-08
2.19341e-06
-5.01101e-08
2.21144e-06
-4.57639e-08
2.22905e-06
-4.30312e-08
2.24648e-06
-4.20418e-08
2.26384e-06
-4.23617e-08
2.2811e-06
-4.31041e-08
2.29815e-06
-4.34521e-08
2.31481e-06
-4.29278e-08
2.33081e-06
-4.14123e-08
2.34586e-06
-3.89551e-08
2.35975e-06
-3.56912e-08
2.37236e-06
-3.1826e-08
2.38366e-06
-2.79372e-08
2.39354e-06
-2.39069e-08
2.40184e-06
-1.93175e-08
2.40858e-06
-1.41954e-08
2.41356e-06
-7.71889e-09
2.41629e-06
1.6671e-09
2.4162e-06
1.63827e-08
2.41241e-06
3.97386e-08
2.40642e-06
7.90156e-08
1.45325e-07
2.39968e-06
3.28741e-08
-4.14342e-07
1.46772e-08
-3.45677e-07
-9.94536e-09
-2.71394e-07
-4.01912e-08
-1.97729e-07
-7.78763e-08
-1.25291e-07
-1.2421e-07
-5.37484e-08
-1.80652e-07
1.69873e-08
-2.48394e-07
8.67661e-08
-3.28842e-07
1.55312e-07
-4.22873e-07
2.2211e-07
-5.32262e-07
2.86598e-07
-6.58637e-07
3.48332e-07
-8.03452e-07
4.07209e-07
-9.65278e-07
4.63334e-07
-1.13977e-06
5.16561e-07
-1.31965e-06
5.65885e-07
-1.49775e-06
6.09357e-07
-1.66786e-06
6.44914e-07
-1.82608e-06
6.71291e-07
-1.96987e-06
6.88305e-07
-2.09886e-06
6.96481e-07
-2.21338e-06
6.96652e-07
-2.31529e-06
6.89874e-07
-2.40651e-06
6.77329e-07
-2.48956e-06
6.6023e-07
-2.56635e-06
6.39749e-07
-2.63889e-06
6.16957e-07
-2.7085e-06
5.92791e-07
-2.77637e-06
5.68023e-07
-2.84314e-06
5.43231e-07
-2.90932e-06
5.18863e-07
-2.97513e-06
4.95249e-07
-3.04067e-06
4.72599e-07
-3.10593e-06
4.51038e-07
-3.1708e-06
4.30611e-07
-3.2352e-06
4.11308e-07
-3.29892e-06
3.93078e-07
-3.36189e-06
3.75837e-07
-3.42385e-06
3.59485e-07
-3.48476e-06
3.43903e-07
-3.54437e-06
3.28969e-07
-3.60264e-06
3.14552e-07
-3.65931e-06
3.00526e-07
-3.71437e-06
2.86763e-07
-3.76756e-06
2.7314e-07
-3.81886e-06
2.59538e-07
-3.86802e-06
2.45845e-07
-3.91501e-06
2.31955e-07
-3.95955e-06
2.17774e-07
-4.00161e-06
2.03204e-07
-4.04088e-06
1.88164e-07
-4.07728e-06
1.72584e-07
-4.11048e-06
1.56394e-07
-4.14034e-06
1.39529e-07
-4.16652e-06
1.21935e-07
-4.18884e-06
1.03556e-07
-4.20693e-06
8.43499e-08
-4.22057e-06
6.42774e-08
-4.22936e-06
4.33125e-08
-4.23308e-06
2.14357e-08
-4.23136e-06
-1.34251e-09
-4.22403e-06
-2.4998e-08
-4.2108e-06
-4.94661e-08
-4.19149e-06
-7.46674e-08
-4.16588e-06
-1.00502e-07
-4.13382e-06
-1.26863e-07
-4.09518e-06
-1.53606e-07
-4.04989e-06
-1.80575e-07
-3.99792e-06
-2.07594e-07
-3.93931e-06
-2.34481e-07
-3.87414e-06
-2.61019e-07
-3.80257e-06
-2.86976e-07
-3.7248e-06
-3.12113e-07
-3.64107e-06
-3.36191e-07
-3.55171e-06
-3.58971e-07
-3.45714e-06
-3.80388e-07
-3.35771e-06
-4.00366e-07
-3.25386e-06
-4.18635e-07
-3.14611e-06
-4.3509e-07
-3.0349e-06
-4.49582e-07
-2.92079e-06
-4.6206e-07
-2.80433e-06
-4.72512e-07
-2.68598e-06
-4.80939e-07
-2.56625e-06
-4.87371e-07
-2.44565e-06
-4.91853e-07
-2.32468e-06
-4.9449e-07
-2.20379e-06
-4.95362e-07
-2.08339e-06
-4.94637e-07
-1.96402e-06
-4.92504e-07
-1.84581e-06
-4.88972e-07
-1.72892e-06
-4.84275e-07
-1.61351e-06
-4.78448e-07
-1.49985e-06
-4.71689e-07
-1.38812e-06
-4.64111e-07
-1.27846e-06
-4.55896e-07
-1.17097e-06
-4.47191e-07
-1.06572e-06
-4.38118e-07
-9.62741e-07
-4.288e-07
-8.62043e-07
-4.19327e-07
-7.63616e-07
-4.09796e-07
-6.67424e-07
-4.00258e-07
-5.73421e-07
-3.90791e-07
-4.81577e-07
-3.81413e-07
-3.91857e-07
-3.72219e-07
-3.04238e-07
-3.63229e-07
-2.18674e-07
-3.54532e-07
-1.35098e-07
-3.46139e-07
-5.34203e-08