/*--------------------------------*- C++ -*----------------------------------*\
| =========                 |                                                 |
| \\      /  F ield         | OpenFOAM: The Open Source CFD Toolbox           |
|  \\    /   O peration     | Version:  2212                                  |
|   \\  /    A nd           | Website:  www.openfoam.com                      |
|    \\/     M anipulation  |                                                 |
\*---------------------------------------------------------------------------*/
FoamFile
{
    version     2.0;
    format      ascii;
    arch        "LSB;label=32;scalar=64";
    class       volVectorField;
    location    "50";
    object      U;
}
// * * * * * * * * * * * * * * * * * * * * * * * * * * * * * * * * * * * * * //

dimensions      [0 1 -1 0 0 0 0];

internalField   nonuniform List<vector> 
12225
(
(9.84107 -0.956419 0)
(9.5918 -0.887851 0)
(9.3154 -0.594679 0)
(9.01039 -0.369766 0)
(8.71867 -0.225301 0)
(8.45657 -0.136995 0)
(8.22492 -0.0835209 0)
(8.0211 -0.0505039 0)
(7.84301 -0.0298021 0)
(7.68701 -0.0168146 0)
(7.54951 -0.0085182 0)
(7.42684 -0.00319933 0)
(7.31685 0.000247477 0)
(7.21746 0.00258994 0)
(7.12638 0.00435835 0)
(7.04396 0.00524322 0)
(6.95896 0.0103103 0)
(6.89837 -0.00834367 0)
(10.0721 0.255951 0)
(10.1866 0.418608 0)
(10.2282 0.384533 0)
(10.2287 0.311169 0)
(10.2093 0.246743 0)
(10.1761 0.196661 0)
(10.1282 0.159 0)
(10.0677 0.131273 0)
(9.99887 0.110964 0)
(9.92545 0.0959395 0)
(9.84932 0.0845284 0)
(9.77199 0.0757926 0)
(9.69425 0.0690398 0)
(9.61723 0.0638879 0)
(9.54128 0.059925 0)
(9.46698 0.0575567 0)
(9.39435 0.0550425 0)
(9.32533 0.0579232 0)
(10.0032 0.0600796 0)
(10.0306 0.0485929 0)
(10.0606 0.010835 0)
(10.088 0.000934696 0)
(10.1122 0.00932717 0)
(10.1335 0.0210456 0)
(10.1489 0.0311411 0)
(10.1577 0.0393117 0)
(10.1608 0.0457661 0)
(10.1595 0.0505785 0)
(10.1541 0.0540191 0)
(10.145 0.056501 0)
(10.1327 0.058413 0)
(10.1177 0.0600653 0)
(10.1003 0.0616566 0)
(10.0808 0.0633788 0)
(10.0599 0.065429 0)
(10.0359 0.066789 0)
(9.99714 0.0100607 0)
(10.0087 0.0265659 0)
(10.0332 0.0390149 0)
(10.0534 0.0543798 0)
(10.0689 0.066517 0)
(10.0829 0.0725021 0)
(10.0949 0.0742472 0)
(10.1044 0.0742306 0)
(10.1119 0.0735598 0)
(10.1179 0.0725678 0)
(10.1223 0.0714853 0)
(10.125 0.0706123 0)
(10.1262 0.0701493 0)
(10.126 0.0701942 0)
(10.1244 0.070739 0)
(10.1216 0.0717536 0)
(10.1174 0.073343 0)
(10.1114 0.0743631 0)
(9.99902 0.00699928 0)
(10.0078 0.034845 0)
(10.0269 0.0492978 0)
(10.0416 0.0564859 0)
(10.0526 0.060612 0)
(10.063 0.0623749 0)
(10.0724 0.0627909 0)
(10.0804 0.0629356 0)
(10.0871 0.0631401 0)
(10.0927 0.0633492 0)
(10.0972 0.0636143 0)
(10.1005 0.0641023 0)
(10.1028 0.0649495 0)
(10.1042 0.0661864 0)
(10.1046 0.0677931 0)
(10.1042 0.0697718 0)
(10.1026 0.0722593 0)
(10.1 0.0750791 0)
(10.0001 0.00949458 0)
(10.0076 0.0341085 0)
(10.0226 0.0453828 0)
(10.0348 0.0503768 0)
(10.0445 0.054439 0)
(10.0536 0.0575327 0)
(10.062 0.0594482 0)
(10.0692 0.0607218 0)
(10.0752 0.0617116 0)
(10.0802 0.0625113 0)
(10.0843 0.0632447 0)
(10.0873 0.0641079 0)
(10.0895 0.0652536 0)
(10.0909 0.0667452 0)
(10.0916 0.068609 0)
(10.0915 0.0709062 0)
(10.0906 0.0738352 0)
(10.0889 0.0774347 0)
(10.0003 0.00943793 0)
(10.0067 0.0296397 0)
(10.019 0.0404631 0)
(10.0302 0.0462819 0)
(10.0392 0.0511382 0)
(10.0477 0.0548764 0)
(10.0554 0.05722 0)
(10.062 0.05872 0)
(10.0676 0.0598634 0)
(10.0723 0.0608476 0)
(10.0761 0.061809 0)
(10.079 0.0629158 0)
(10.0811 0.0643115 0)
(10.0826 0.0660766 0)
(10.0834 0.0682639 0)
(10.0835 0.0709502 0)
(10.083 0.0743179 0)
(10.0819 0.078389 0)
(10.0003 0.00851724 0)
(10.0057 0.0257585 0)
(10.0161 0.0367062 0)
(10.0263 0.043174 0)
(10.0349 0.0482076 0)
(10.0428 0.0520098 0)
(10.05 0.0545116 0)
(10.0563 0.0562276 0)
(10.0617 0.0576207 0)
(10.0662 0.0588956 0)
(10.07 0.0601781 0)
(10.0729 0.0616062 0)
(10.075 0.0633179 0)
(10.0766 0.0654048 0)
(10.0776 0.067933 0)
(10.0781 0.0709842 0)
(10.0779 0.0747115 0)
(10.0774 0.0791472 0)
(10.0003 0.00764449 0)
(10.0049 0.022738 0)
(10.0137 0.033387 0)
(10.0229 0.0400432 0)
(10.031 0.0450474 0)
(10.0384 0.0488674 0)
(10.0452 0.0515777 0)
(10.0513 0.0535974 0)
(10.0566 0.0553066 0)
(10.0611 0.0568951 0)
(10.0649 0.0584894 0)
(10.0678 0.0602239 0)
(10.0702 0.0622366 0)
(10.072 0.064619 0)
(10.0732 0.0674447 0)
(10.074 0.0707976 0)
(10.0744 0.0748103 0)
(10.0744 0.0795096 0)
(10.0003 0.00687047 0)
(10.0042 0.0201389 0)
(10.0116 0.0301735 0)
(10.0198 0.0368083 0)
(10.0274 0.0418006 0)
(10.0345 0.0456865 0)
(10.0409 0.0486049 0)
(10.0468 0.0509042 0)
(10.052 0.0528989 0)
(10.0565 0.0547661 0)
(10.0603 0.0566378 0)
(10.0635 0.0586571 0)
(10.066 0.0609498 0)
(10.0681 0.0636033 0)
(10.0697 0.0666909 0)
(10.0709 0.0702952 0)
(10.0717 0.0745244 0)
(10.0723 0.0793916 0)
(10.0003 0.00614596 0)
(10.0036 0.0178135 0)
(10.0099 0.0271082 0)
(10.0172 0.0336049 0)
(10.0242 0.0385676 0)
(10.0309 0.0425071 0)
(10.037 0.045584 0)
(10.0427 0.0480997 0)
(10.0478 0.0503234 0)
(10.0524 0.0524248 0)
(10.0563 0.0545468 0)
(10.0595 0.0568293 0)
(10.0623 0.0593813 0)
(10.0647 0.0622765 0)
(10.0667 0.0655867 0)
(10.0683 0.069383 0)
(10.0697 0.0737575 0)
(10.0709 0.0787076 0)
(10.0003 0.00550108 0)
(10.0031 0.0158815 0)
(10.0086 0.0244622 0)
(10.0151 0.0307735 0)
(10.0217 0.0356477 0)
(10.028 0.0395754 0)
(10.0338 0.042763 0)
(10.0393 0.0454458 0)
(10.0444 0.047837 0)
(10.0489 0.0501099 0)
(10.0529 0.0524296 0)
(10.0564 0.0549354 0)
(10.0594 0.0577113 0)
(10.062 0.0608126 0)
(10.0644 0.0642861 0)
(10.0665 0.0682062 0)
(10.0684 0.0726434 0)
(10.0702 0.0776084 0)
(10.0003 0.00489833 0)
(10.0027 0.0141017 0)
(10.0075 0.0219547 0)
(10.0134 0.0279965 0)
(10.0195 0.0327321 0)
(10.0254 0.0365945 0)
(10.0311 0.0398403 0)
(10.0364 0.0426615 0)
(10.0414 0.0452071 0)
(10.0459 0.0476278 0)
(10.0501 0.0500953 0)
(10.0537 0.0527618 0)
(10.057 0.0557036 0)
(10.0599 0.0589625 0)
(10.0626 0.0625665 0)
(10.0651 0.0665673 0)
(10.0675 0.0710221 0)
(10.0698 0.0759281 0)
(10.0002 0.00427047 0)
(10.0024 0.0122547 0)
(10.0065 0.0192571 0)
(10.0117 0.0248939 0)
(10.0173 0.0294314 0)
(10.0229 0.0331675 0)
(10.0284 0.0364008 0)
(10.0336 0.0393261 0)
(10.0385 0.0420297 0)
(10.043 0.0445987 0)
(10.0473 0.0471997 0)
(10.0512 0.049979 0)
(10.0548 0.0530425 0)
(10.0581 0.0564122 0)
(10.0612 0.0601181 0)
(10.0641 0.0641636 0)
(10.067 0.0685941 0)
(10.0699 0.0733689 0)
(10.0002 0.00361657 0)
(10.002 0.0103169 0)
(10.0056 0.0163907 0)
(10.0103 0.0214599 0)
(10.0154 0.0256955 0)
(10.0206 0.0292502 0)
(10.0259 0.0323738 0)
(10.031 0.0352948 0)
(10.0358 0.0380934 0)
(10.0404 0.0408068 0)
(10.0448 0.043525 0)
(10.049 0.0463872 0)
(10.053 0.0494951 0)
(10.0567 0.0529052 0)
(10.0602 0.0566126 0)
(10.0637 0.0606268 0)
(10.0671 0.0649394 0)
(10.0706 0.069519 0)
(10.0002 0.00292863 0)
(10.0018 0.00828016 0)
(10.0049 0.0133281 0)
(10.009 0.0176591 0)
(10.0137 0.0214337 0)
(10.0186 0.0247228 0)
(10.0238 0.0276537 0)
(10.0288 0.0304426 0)
(10.0337 0.0332111 0)
(10.0384 0.0359822 0)
(10.0429 0.0387731 0)
(10.0474 0.0416702 0)
(10.0518 0.0447575 0)
(10.056 0.0481034 0)
(10.06 0.0517094 0)
(10.064 0.0555655 0)
(10.068 0.0596567 0)
(10.072 0.0639248 0)
(10.0002 0.00219075 0)
(10.0016 0.00611381 0)
(10.0043 0.00998821 0)
(10.0081 0.0134196 0)
(10.0125 0.0165422 0)
(10.0172 0.0194079 0)
(10.0222 0.0220473 0)
(10.0273 0.0245909 0)
(10.0324 0.0271749 0)
(10.0372 0.0298304 0)
(10.0419 0.0325634 0)
(10.0468 0.035386 0)
(10.0516 0.0383653 0)
(10.0563 0.0415318 0)
(10.0609 0.0449168 0)
(10.0654 0.0484857 0)
(10.0699 0.0522396 0)
(10.0745 0.0561004 0)
(10.0002 0.00137568 0)
(10.0015 0.00372958 0)
(10.004 0.00625222 0)
(10.0076 0.00859879 0)
(10.0119 0.0108363 0)
(10.0166 0.013029 0)
(10.0215 0.0151834 0)
(10.0268 0.0173372 0)
(10.0321 0.0195707 0)
(10.0372 0.0219268 0)
(10.0423 0.0244086 0)
(10.0474 0.0270109 0)
(10.0527 0.0297487 0)
(10.0579 0.03263 0)
(10.063 0.0356626 0)
(10.0681 0.0388302 0)
(10.0731 0.0421181 0)
(10.0782 0.0454876 0)
(10.0002 0.000412518 0)
(10.0015 0.000941116 0)
(10.004 0.00181338 0)
(10.0077 0.00278415 0)
(10.0121 0.00387448 0)
(10.0169 0.00511922 0)
(10.0221 0.00653343 0)
(10.0276 0.00808679 0)
(10.0333 0.00978998 0)
(10.0388 0.0116482 0)
(10.0443 0.0136792 0)
(10.0499 0.0158576 0)
(10.0557 0.0181825 0)
(10.0614 0.0206231 0)
(10.067 0.0231744 0)
(10.0726 0.0258081 0)
(10.0781 0.0285221 0)
(10.0836 0.0313005 0)
(10.0002 -0.000547666 0)
(10.0016 -0.00182037 0)
(10.0044 -0.00263134 0)
(10.0084 -0.00307111 0)
(10.0132 -0.00314491 0)
(10.0185 -0.00287603 0)
(10.0241 -0.00227731 0)
(10.03 -0.00138847 0)
(10.0361 -0.000279826 0)
(10.0421 0.00105052 0)
(10.048 0.00258362 0)
(10.0541 0.00432263 0)
(10.0602 0.00620608 0)
(10.0663 0.00821533 0)
(10.0723 0.0102928 0)
(10.0782 0.0124468 0)
(10.0841 0.0146391 0)
(10.0899 0.0169126 0)
(10.0002 -0.00138512 0)
(10.0018 -0.00426647 0)
(10.0049 -0.00658245 0)
(10.0094 -0.00822513 0)
(10.0147 -0.00924972 0)
(10.0205 -0.00976937 0)
(10.0266 -0.00983451 0)
(10.0329 -0.00950825 0)
(10.0394 -0.00888757 0)
(10.0457 -0.00798937 0)
(10.0521 -0.00682917 0)
(10.0586 -0.00542195 0)
(10.065 -0.00385206 0)
(10.0714 -0.00216006 0)
(10.0776 -0.000410309 0)
(10.0838 0.00140244 0)
(10.0898 0.00324342 0)
(10.0959 0.00515337 0)
(10.0002 -0.00217096 0)
(10.0019 -0.00666561 0)
(10.0056 -0.0105209 0)
(10.0107 -0.0133019 0)
(10.0167 -0.0151396 0)
(10.0229 -0.0162978 0)
(10.0295 -0.0168688 0)
(10.0363 -0.0169837 0)
(10.0431 -0.0167522 0)
(10.0499 -0.016223 0)
(10.0567 -0.015385 0)
(10.0635 -0.0142972 0)
(10.0702 -0.0130117 0)
(10.0768 -0.0116239 0)
(10.0832 -0.0101417 0)
(10.0895 -0.00861474 0)
(10.0958 -0.007018 0)
(10.1019 -0.00537007 0)
(10.0002 -0.00288033 0)
(10.002 -0.0090342 0)
(10.0062 -0.0144211 0)
(10.0123 -0.0182213 0)
(10.019 -0.0208402 0)
(10.0258 -0.0226369 0)
(10.0329 -0.0236632 0)
(10.0401 -0.0240734 0)
(10.0472 -0.0240644 0)
(10.0544 -0.0237214 0)
(10.0615 -0.0230829 0)
(10.0686 -0.0222096 0)
(10.0755 -0.0211792 0)
(10.0823 -0.0200524 0)
(10.0889 -0.018856 0)
(10.0954 -0.017593 0)
(10.1017 -0.0162766 0)
(10.108 -0.0148827 0)
(10.0001 -0.00346717 0)
(10.0019 -0.0117792 0)
(10.0069 -0.0184133 0)
(10.014 -0.0225837 0)
(10.0213 -0.0257612 0)
(10.0287 -0.0283449 0)
(10.0364 -0.0300436 0)
(10.0441 -0.0308923 0)
(10.0516 -0.0311199 0)
(10.059 -0.0308776 0)
(10.0664 -0.0302646 0)
(10.0737 -0.0293888 0)
(10.0808 -0.0283729 0)
(10.0877 -0.0272758 0)
(10.0944 -0.0261452 0)
(10.101 -0.0249709 0)
(10.1075 -0.0237862 0)
(10.1138 -0.0225396 0)
(9.99983 -0.00323189 0)
(10.0014 -0.0156728 0)
(10.0078 -0.0240448 0)
(10.0158 -0.0275937 0)
(10.0233 -0.0301621 0)
(10.0311 -0.0327485 0)
(10.0395 -0.0348477 0)
(10.0478 -0.0362972 0)
(10.0559 -0.0371843 0)
(10.0639 -0.0375523 0)
(10.0718 -0.0374368 0)
(10.0794 -0.036949 0)
(10.0868 -0.0362236 0)
(10.0939 -0.0353534 0)
(10.1007 -0.0343815 0)
(10.1075 -0.0333394 0)
(10.1142 -0.0322503 0)
(10.1207 -0.0311144 0)
(9.99831 0.000247713 0)
(9.99826 -0.0169577 0)
(10.0077 -0.030281 0)
(10.0179 -0.035983 0)
(10.0261 -0.0382917 0)
(10.0343 -0.0392156 0)
(10.0433 -0.0393714 0)
(10.0524 -0.0393048 0)
(10.0612 -0.0392422 0)
(10.07 -0.0391194 0)
(10.0787 -0.0388267 0)
(10.087 -0.0383675 0)
(10.095 -0.0378316 0)
(10.1026 -0.0372595 0)
(10.11 -0.0366526 0)
(10.1171 -0.0360061 0)
(10.1241 -0.035317 0)
(10.1308 -0.0345231 0)
(9.9942 0.00295231 0)
(9.99029 -0.00716785 0)
(10.004 -0.0219811 0)
(10.02 -0.0382619 0)
(10.0328 -0.0513931 0)
(10.0443 -0.0589844 0)
(10.0556 -0.062133 0)
(10.0662 -0.0628557 0)
(10.0762 -0.0624018 0)
(10.086 -0.0612121 0)
(10.0956 -0.0595355 0)
(10.1048 -0.05757 0)
(10.1134 -0.0555459 0)
(10.1215 -0.0535959 0)
(10.1293 -0.0517669 0)
(10.1367 -0.0500528 0)
(10.144 -0.0484688 0)
(10.1508 -0.0468754 0)
(9.99426 -0.0304188 0)
(9.99552 -0.0130254 0)
(10.0093 0.021959 0)
(10.0286 0.0329667 0)
(10.0491 0.0256996 0)
(10.0701 0.0135052 0)
(10.0897 0.00203606 0)
(10.1068 -0.00793288 0)
(10.1215 -0.0163365 0)
(10.1344 -0.0231143 0)
(10.1457 -0.0283118 0)
(10.1554 -0.0321907 0)
(10.1634 -0.0350116 0)
(10.1701 -0.0370893 0)
(10.1756 -0.0386023 0)
(10.1801 -0.0397085 0)
(10.1839 -0.0405276 0)
(10.1869 -0.0411478 0)
(10.0367 -0.209314 0)
(10.1083 -0.365781 0)
(10.1425 -0.35237 0)
(10.1575 -0.297811 0)
(10.1709 -0.247263 0)
(10.1841 -0.206016 0)
(10.1918 -0.173116 0)
(10.1913 -0.147383 0)
(10.1834 -0.127439 0)
(10.1698 -0.111745 0)
(10.1515 -0.0991436 0)
(10.1296 -0.0888579 0)
(10.1049 -0.0803474 0)
(10.0782 -0.0732391 0)
(10.0502 -0.0672909 0)
(10.0216 -0.0623398 0)
(9.99282 -0.0582022 0)
(9.96459 -0.0552242 0)
(9.92883 0.765537 0)
(9.83985 0.742178 0)
(9.70706 0.525213 0)
(9.5295 0.349464 0)
(9.33702 0.228205 0)
(9.14844 0.147613 0)
(8.96965 0.0944443 0)
(8.80286 0.0590546 0)
(8.6498 0.0352923 0)
(8.51128 0.0193299 0)
(8.3866 0.00872303 0)
(8.2746 0.00181658 0)
(8.17394 -0.0026109 0)
(8.08361 -0.00533063 0)
(8.00262 -0.00688672 0)
(7.93009 -0.00771608 0)
(7.86465 -0.00809059 0)
(7.80572 -0.00861446 0)
(0.0392997 -0.00253615 -4.11266e-19)
(0.149735 -0.141997 1.95002e-19)
(0.291673 -0.190927 0)
(0.439856 -0.192172 0)
(0.566228 -0.171518 0)
(0.662447 -0.140346 -8.09611e-20)
(0.72825 -0.104121 0)
(0.76588 -0.0653371 0)
(0.774383 -0.025559 0)
(0.752932 0.0110528 0)
(0.708987 0.0389005 8.28924e-20)
(0.650404 0.0548945 0)
(0.5864 0.0590148 0)
(0.524654 0.0544787 0)
(0.468233 0.0455702 0)
(0.41489 0.0355581 1.19022e-19)
(0.360559 0.0250071 0)
(0.300753 0.0162823 0)
(0.231161 0.0151022 0)
(0.145054 0.0272658 0)
(0.0445918 0.0510997 0)
(-0.0717475 0.083954 0)
(-0.217924 0.119189 0)
(-0.385597 0.150329 9.24569e-20)
(-0.567956 0.174695 -7.4108e-20)
(-0.760857 0.192753 6.16179e-20)
(-0.960373 0.204474 5.29285e-20)
(-1.16305 0.210542 0)
(-1.36565 0.211879 0)
(-1.56532 0.209308 -3.86888e-20)
(-1.76009 0.203916 -3.61262e-20)
(-1.94849 0.196671 0)
(-2.12946 0.188288 0)
(-2.30252 0.179364 -3.14965e-20)
(-2.46737 0.170318 0)
(-2.62412 0.161441 0)
(-2.77292 0.152928 2.92885e-20)
(-2.91417 0.144859 0)
(-3.04821 0.137294 2.84629e-20)
(-3.17554 0.130192 5.63346e-20)
(-3.29652 0.12355 0)
(-3.41159 0.117264 0)
(-3.52107 0.111306 0)
(-3.62531 0.105545 0)
(-3.7245 0.0999661 0)
(-3.8189 0.0944435 5.45715e-20)
(-3.90861 0.0889951 5.4453e-20)
(-3.99374 0.0835103 5.43716e-20)
(-4.0743 0.0780411 0)
(-4.15029 0.072515 -5.43024e-20)
(-4.22161 0.0670277 0)
(-4.28818 0.0614955 5.43724e-20)
(-4.34977 0.0560402 5.44625e-20)
(-4.40619 0.0505864 0)
(-4.45713 0.0451899 0)
(-4.50233 0.0396392 0)
(-4.54142 0.0340032 5.52556e-20)
(-4.57396 0.0282072 0)
(-4.59955 0.0225276 0)
(-4.61796 0.0169261 0)
(-4.62909 0.0116473 0)
(-4.63322 0.00659089 0)
(-4.63125 0.00167967 0)
(-4.62301 -0.0034347 0)
(-4.60855 -0.00843398 0)
(-4.58788 -0.0133819 -5.64512e-20)
(-4.56095 -0.0183143 0)
(-4.52775 -0.0234162 0)
(-4.48822 -0.0287595 5.4969e-20)
(-4.44222 -0.0334942 5.41286e-20)
(-4.39019 -0.0379229 0)
(-4.3319 -0.044655 -5.19602e-20)
(-4.26711 -0.0493432 5.04851e-20)
(-4.19707 -0.0520563 0)
(-4.12149 -0.0587491 -4.70585e-20)
(-4.03953 -0.0634711 0)
(-3.95345 -0.0650031 0)
(-3.86236 -0.0711166 3.97941e-20)
(-3.76621 -0.0746442 0)
(-3.66688 -0.0748553 -3.3723e-20)
(-3.56428 -0.0794171 0)
(-3.45758 -0.0838329 2.67391e-20)
(-3.34841 -0.0836247 2.28312e-20)
(-3.23769 -0.0849069 1.87971e-20)
(-3.12451 -0.0863919 2.89621e-20)
(-3.01079 -0.0866021 -2.00489e-20)
(-2.89546 -0.0890559 0)
(-2.78017 -0.0876117 0)
(-2.66576 -0.0875672 0)
(-2.55116 -0.0875611 1.99341e-20)
(-2.43812 -0.0864144 3.09879e-20)
(-2.32463 -0.0863939 -4.23333e-20)
(-2.21273 -0.0846264 0)
(-2.10158 -0.08405 6.64025e-20)
(-1.99209 -0.0825422 7.89935e-20)
(-1.88422 -0.0811362 9.19931e-20)
(-1.77816 -0.0796161 0)
(-1.674 -0.0780569 0)
(-1.57182 -0.0764694 0)
(-1.47167 -0.0748725 1.48683e-19)
(-1.37356 -0.0732854 0)
(-1.27747 -0.0717022 0)
(-1.1834 -0.0701542 -1.97483e-19)
(-1.09134 -0.068633 0)
(-1.00136 -0.0672114 0)
(-0.913515 -0.0658337 -2.54014e-19)
(-0.827835 -0.0645801 0)
(-0.744261 -0.0634373 0)
(-0.662716 -0.0624167 3.22007e-19)
(-0.583121 -0.0614716 3.48187e-19)
(-0.505368 -0.0606576 0)
(-0.429354 -0.0599236 -4.07548e-19)
(-0.354989 -0.0593044 0)
(-0.282204 -0.0587527 4.79112e-19)
(-0.210855 -0.0582997 0)
(-0.140897 -0.0578871 5.67661e-19)
(-0.0723403 -0.0574246 6.20958e-19)
(-0.00525347 -0.0564406 0)
(0.0605143 -0.0544926 0)
(0.125248 -0.0519734 0)
(0.18887 -0.0495045 0)
(0.251266 -0.0471679 0)
(0.312395 -0.0450006 0)
(0.372197 -0.0429662 0)
(0.430662 -0.0410809 5.05772e-19)
(0.487794 -0.0393071 -4.89493e-19)
(0.543647 -0.0376615 0)
(0.598289 -0.0361484 0)
(0.651777 -0.034739 0)
(0.704111 -0.0333755 0)
(0.755303 -0.0320635 -8.55697e-19)
(0.805358 -0.0307757 0)
(0.8544 -0.0295859 8.19245e-19)
(0.902368 -0.0285083 -8.03051e-19)
(0.949288 -0.0274919 0)
(0.995163 -0.0264906 0)
(1.04004 -0.0255193 0)
(1.08397 -0.0246098 7.48685e-19)
(1.12696 -0.0237407 7.37037e-19)
(1.16898 -0.0229098 0)
(1.21004 -0.0221119 7.15777e-19)
(1.2502 -0.0213565 7.06057e-19)
(1.28949 -0.0206348 -6.9679e-19)
(1.32789 -0.0199616 0)
(1.36541 -0.019348 0)
(1.40206 -0.018757 -6.71278e-19)
(1.43782 -0.0181217 0)
(1.47265 -0.0174948 0)
(1.50665 -0.0169422 0)
(1.53988 -0.016444 0)
(1.57226 -0.0159306 6.35187e-19)
(1.60372 -0.0154065 6.28832e-19)
(1.63428 -0.0148616 0)
(1.66377 -0.0141576 6.17158e-19)
(1.69182 -0.0131527 0)
(1.71805 -0.011852 0)
(1.74214 -0.0102993 6.03402e-19)
(1.76373 -0.00860585 0)
(1.78265 -0.00699393 5.98422e-19)
(1.79907 -0.00575556 0)
(1.81359 -0.00522476 0)
(1.82713 -0.00550345 6.04811e-19)
(1.84059 -0.0063506 0)
(1.85439 -0.00721447 6.21209e-19)
(1.86872 -0.00777267 0)
(1.88317 -0.00799282 0)
(1.89726 -0.00786848 0)
(1.91082 -0.00754759 -6.54233e-19)
(1.92352 -0.00697426 0)
(1.935 -0.00618486 6.6249e-19)
(1.94526 -0.00542423 0)
(1.95442 -0.00478076 0)
(1.96224 -0.00386774 0)
(1.96829 -0.00275848 0)
(1.97255 -0.00169111 0)
(1.97243 6.06593e-05 0)
(1.96586 0.00306827 0)
(1.94475 0.00781096 -1.34808e-18)
(1.91494 0.0180543 0)
(1.80025 0.0299897 0)
(0.0944546 -0.332011 6.1563e-19)
(0.225937 -0.514072 -3.10119e-19)
(0.332103 -0.474943 0)
(0.403889 -0.388033 1.15159e-19)
(0.45187 -0.297837 0)
(0.480704 -0.21094 4.74476e-20)
(0.493165 -0.127885 -9.52292e-20)
(0.491605 -0.0486109 -9.78959e-20)
(0.47958 0.0253062 0)
(0.459125 0.0898926 -1.06498e-19)
(0.42689 0.139411 -5.67367e-20)
(0.380842 0.169037 0)
(0.319467 0.17764 0)
(0.241511 0.17177 0)
(0.147541 0.167427 0)
(0.0382495 0.178003 -7.23277e-20)
(-0.0916081 0.206032 0)
(-0.248021 0.248208 1.13906e-19)
(-0.428268 0.30051 0)
(-0.62642 0.357291 0)
(-0.836098 0.412113 -7.50412e-20)
(-1.05268 0.459866 0)
(-1.27075 0.497006 5.85738e-20)
(-1.48521 0.522035 -2.67441e-20)
(-1.6932 0.534994 2.44052e-20)
(-1.8923 0.537349 -2.25764e-20)
(-2.08074 0.530847 -2.11678e-20)
(-2.25751 0.517313 0)
(-2.42195 0.498687 0)
(-2.57456 0.476813 1.86064e-20)
(-2.716 0.452832 -1.85066e-20)
(-2.8471 0.427941 0)
(-2.96876 0.402984 0)
(-3.08193 0.378615 1.74298e-20)
(-3.1875 0.355271 0)
(-3.28629 0.333221 0)
(-3.37902 0.312615 -1.72556e-20)
(-3.46632 0.293471 0)
(-3.5487 0.275776 1.73087e-20)
(-3.6266 0.259412 -3.46134e-20)
(-3.70036 0.244292 0)
(-3.77023 0.230235 0)
(-3.8364 0.217129 -6.94715e-20)
(-3.89903 0.20477 -6.9627e-20)
(-3.95818 0.193054 -6.98003e-20)
(-4.01391 0.181777 3.47648e-20)
(-4.06623 0.170863 -3.53381e-20)
(-4.11517 0.160122 -1.05869e-19)
(-4.16068 0.149512 7.06508e-20)
(-4.20273 0.138865 3.56695e-20)
(-4.24131 0.128184 0)
(-4.27638 0.11732 -3.5905e-20)
(-4.30786 0.106333 3.57154e-20)
(-4.33571 0.0950997 0)
(-4.35988 0.083711 0)
(-4.38041 0.0720381 0)
(-4.39735 0.0602192 -3.66484e-20)
(-4.41078 0.0481751 0)
(-4.42079 0.0361222 7.37067e-20)
(-4.42739 0.0240323 0)
(-4.43048 0.0122137 7.41378e-20)
(-4.42946 0.000602829 0)
(-4.42309 -0.0107356 -7.4247e-20)
(-4.41106 -0.0220585 0)
(-4.39316 -0.0333075 7.39433e-20)
(-4.36922 -0.0447098 -3.67926e-20)
(-4.3391 -0.0560439 0)
(-4.3027 -0.0673745 -7.18789e-20)
(-4.26007 -0.078525 -3.51352e-20)
(-4.21123 -0.0895604 -3.43895e-20)
(-4.15595 -0.100222 0)
(-4.0946 -0.110496 -3.34589e-20)
(-4.02761 -0.120275 -3.1547e-20)
(-3.95434 -0.129608 0)
(-3.87527 -0.138165 2.90892e-20)
(-3.79151 -0.146362 -5.63809e-20)
(-3.70248 -0.153822 0)
(-3.60862 -0.160542 -2.40693e-20)
(-3.51135 -0.166561 0)
(-3.40966 -0.171573 6.23475e-20)
(-3.30431 -0.175788 0)
(-3.19672 -0.179169 -4.95371e-20)
(-3.08682 -0.18185 -1.35589e-20)
(-2.97449 -0.183697 1.31775e-20)
(-2.86076 -0.184776 2.14692e-20)
(-2.74591 -0.185124 -1.64987e-20)
(-2.63045 -0.1847 0)
(-2.51516 -0.183825 0)
(-2.39997 -0.18251 0)
(-2.28561 -0.180634 -2.25418e-20)
(-2.17205 -0.178293 -1.44198e-20)
(-2.05934 -0.175435 1.99852e-20)
(-1.94789 -0.172225 0)
(-1.83767 -0.168605 2.74824e-20)
(-1.72923 -0.164801 -3.69991e-20)
(-1.62253 -0.160842 -4.2684e-20)
(-1.51773 -0.156761 0)
(-1.4149 -0.152614 0)
(-1.3141 -0.148429 0)
(-1.21535 -0.144254 -6.53869e-20)
(-1.11867 -0.140106 0)
(-1.02401 -0.136001 1.5013e-19)
(-0.931349 -0.131957 2.43859e-19)
(-0.840673 -0.12798 -1.72875e-19)
(-0.751991 -0.12413 0)
(-0.665314 -0.120423 -9.62845e-20)
(-0.580621 -0.116919 0)
(-0.497855 -0.113582 -2.18557e-19)
(-0.416941 -0.110438 1.13648e-19)
(-0.337793 -0.107454 1.19559e-19)
(-0.26032 -0.104643 0)
(-0.184424 -0.10197 4.00531e-19)
(-0.110036 -0.0994506 -2.78519e-19)
(-0.0370689 -0.0970768 -1.46094e-19)
(0.0345855 -0.0949007 0)
(0.104937 -0.0928493 -1.49345e-19)
(0.174015 -0.0908881 -4.47462e-19)
(0.241907 -0.0888287 0)
(0.308424 -0.0863633 -3.00602e-19)
(0.373431 -0.0836051 -3.0225e-19)
(0.43712 -0.0808433 -3.03835e-19)
(0.499655 -0.0781463 0)
(0.561045 -0.0755432 0)
(0.621261 -0.0730332 0)
(0.680289 -0.0706285 1.5377e-19)
(0.738123 -0.0683223 1.5606e-19)
(0.794781 -0.0661161 0)
(0.850276 -0.0640025 3.12635e-19)
(0.90463 -0.0619758 3.13661e-19)
(0.957852 -0.0600021 0)
(1.00996 -0.0580834 3.1696e-19)
(1.06097 -0.056212 6.33073e-19)
(1.11092 -0.054418 -3.18572e-19)
(1.15978 -0.0527024 -3.16908e-19)
(1.20758 -0.0510319 0)
(1.25435 -0.0493969 0)
(1.30013 -0.0478083 0)
(1.34494 -0.0463019 -3.21736e-19)
(1.38877 -0.0448607 3.2017e-19)
(1.43162 -0.0434688 6.42915e-19)
(1.47352 -0.0421038 -3.2266e-19)
(1.51453 -0.0407811 3.21219e-19)
(1.5547 -0.039488 3.23133e-19)
(1.594 -0.0382229 0)
(1.63246 -0.0369875 0)
(1.6701 -0.0357912 -3.21597e-19)
(1.70686 -0.034588 0)
(1.74276 -0.0333915 0)
(1.77785 -0.0322495 6.43048e-19)
(1.81213 -0.0311799 0)
(1.8455 -0.0301043 3.19825e-19)
(1.87791 -0.0289574 -3.20464e-19)
(1.90931 -0.0277214 0)
(1.93955 -0.0263314 3.17861e-19)
(1.96832 -0.0246712 0)
(1.99543 -0.0227226 0)
(2.02075 -0.0205599 -3.16547e-19)
(2.0442 -0.0182945 6.31363e-19)
(2.06587 -0.0161226 -3.1621e-19)
(2.08609 -0.0142748 0)
(2.10541 -0.0130145 0)
(2.12442 -0.012458 3.2744e-19)
(2.14351 -0.0124762 0)
(2.16288 -0.0127313 3.5031e-19)
(2.18253 -0.0128554 0)
(2.20234 -0.012666 0)
(2.22199 -0.012173 0)
(2.24116 -0.0114579 4.10855e-19)
(2.25947 -0.0105539 0)
(2.27649 -0.00950212 -4.3199e-19)
(2.29222 -0.00847607 0)
(2.30659 -0.00749338 0)
(2.31956 -0.00641822 8.97751e-19)
(2.33065 -0.00511382 -9.04397e-19)
(2.34011 -0.00314586 0)
(2.34785 -0.000125479 0)
(2.35354 0.00490737 0)
(2.35341 0.0132936 2.69394e-18)
(2.35442 0.029509 0)
(2.32972 0.056056 -1.82153e-18)
(0.0769745 -0.665142 2.68807e-21)
(0.145051 -0.695606 3.28845e-19)
(0.174804 -0.562552 0)
(0.188208 -0.43419 -1.9016e-19)
(0.192111 -0.317552 0)
(0.18592 -0.209361 0)
(0.169229 -0.108059 -5.60871e-22)
(0.142229 -0.0135495 8.43516e-20)
(0.10504 0.0745002 8.58991e-20)
(0.0581781 0.155712 8.81188e-20)
(0.00045295 0.227359 0)
(-0.0713464 0.286437 0)
(-0.161805 0.334036 -8.12109e-20)
(-0.275226 0.376962 -1.51355e-19)
(-0.413194 0.425006 1.38681e-19)
(-0.573999 0.484072 0)
(-0.75334 0.552614 1.13702e-19)
(-0.944717 0.623607 -5.21825e-20)
(-1.14084 0.68996 0)
(-1.33495 0.746515 8.62334e-20)
(-1.52186 0.790318 4.04015e-20)
(-1.69769 0.820182 -7.43726e-20)
(-1.86041 0.835562 -3.49919e-20)
(-2.00915 0.837074 0)
(-2.14443 0.826462 6.26503e-20)
(-2.26754 0.805867 5.99025e-20)
(-2.37999 0.777621 0)
(-2.48335 0.744009 5.57458e-20)
(-2.57935 0.707032 0)
(-2.66938 0.668492 5.32385e-20)
(-2.75444 0.629759 2.55808e-20)
(-2.83547 0.591841 0)
(-2.91317 0.555428 0)
(-2.98806 0.520958 0)
(-3.06053 0.488664 0)
(-3.13083 0.458615 0)
(-3.19912 0.430772 0)
(-3.2655 0.405011 5.01385e-20)
(-3.33003 0.381169 -7.5027e-20)
(-3.39272 0.359042 0)
(-3.45356 0.33843 0)
(-3.51253 0.319111 0)
(-3.56957 0.300891 5.23207e-23)
(-3.62463 0.283563 5.05062e-20)
(-3.67764 0.266958 1.01184e-19)
(-3.72853 0.250895 -1.01491e-19)
(-3.77723 0.235238 -5.07894e-20)
(-3.82365 0.219841 5.12039e-20)
(-3.8677 0.204606 -2.6799e-22)
(-3.90928 0.189414 5.13051e-20)
(-3.94827 0.174201 0)
(-3.98457 0.158886 5.17162e-20)
(-4.01801 0.143449 -2.4634e-22)
(-4.04843 0.127818 0)
(-4.07567 0.111976 0)
(-4.09955 0.0958592 -5.26615e-20)
(-4.11987 0.079486 0)
(-4.1364 0.0628135 0)
(-4.14887 0.0458728 5.32292e-20)
(-4.15694 0.0286064 1.06998e-19)
(-4.16031 0.011037 -5.35325e-20)
(-4.1586 -0.00690222 0)
(-4.15155 -0.0251117 5.3319e-20)
(-4.13894 -0.0435348 0)
(-4.12057 -0.0620493 5.31797e-20)
(-4.09628 -0.0806325 5.22824e-20)
(-4.06593 -0.0991501 -1.04058e-19)
(-4.02941 -0.11753 -5.17814e-20)
(-3.98668 -0.135657 0)
(-3.93775 -0.153435 9.90703e-20)
(-3.8826 -0.170674 0)
(-3.82137 -0.187329 1.40665e-19)
(-3.75422 -0.203073 9.14603e-20)
(-3.6812 -0.217803 8.82465e-20)
(-3.60266 -0.231628 -8.45003e-20)
(-3.51919 -0.244383 1.19272e-19)
(-3.43073 -0.255941 0)
(-3.33785 -0.266244 0)
(-3.24097 -0.275281 -6.55953e-20)
(-3.14026 -0.282818 -8.89693e-20)
(-3.03632 -0.289103 0)
(-2.9298 -0.294046 2.28559e-20)
(-2.82107 -0.297561 0)
(-2.71038 -0.29983 -5.1856e-20)
(-2.59839 -0.300854 2.5961e-21)
(-2.48544 -0.300745 -2.58955e-21)
(-2.37207 -0.299547 1.49224e-20)
(-2.25879 -0.297322 0)
(-2.14584 -0.29436 -6.93022e-22)
(-2.03377 -0.290563 2.46152e-21)
(-1.92255 -0.286089 0)
(-1.81241 -0.280911 0)
(-1.7035 -0.27522 0)
(-1.59607 -0.269045 -3.77376e-20)
(-1.49034 -0.262541 0)
(-1.38641 -0.255806 0)
(-1.28438 -0.248917 0)
(-1.18432 -0.241946 0)
(-1.08625 -0.234951 0)
(-0.990206 -0.227992 -7.69708e-20)
(-0.896165 -0.221098 0)
(-0.804101 -0.214306 -9.18937e-20)
(-0.713973 -0.207626 -9.82258e-20)
(-0.625764 -0.201106 1.04462e-19)
(-0.539463 -0.194767 0)
(-0.455055 -0.188666 1.16667e-19)
(-0.372503 -0.182825 0)
(-0.291746 -0.177254 1.28611e-19)
(-0.212706 -0.171935 -1.34524e-19)
(-0.135298 -0.166868 -4.17882e-19)
(-0.0594429 -0.162042 0)
(0.0149676 -0.157473 -4.47229e-19)
(0.0879552 -0.153141 -1.49566e-19)
(0.159534 -0.148985 0)
(0.229736 -0.14495 -3.11912e-19)
(0.298593 -0.141017 -3.16396e-19)
(0.366142 -0.137184 4.8253e-19)
(0.432425 -0.13343 0)
(0.497431 -0.129751 1.66012e-19)
(0.561187 -0.12613 1.68085e-19)
(0.623782 -0.122558 5.07826e-19)
(0.685267 -0.119048 0)
(0.745643 -0.115617 0)
(0.804894 -0.11227 0)
(0.863009 -0.109015 1.75471e-19)
(0.919985 -0.105848 0)
(0.975828 -0.102772 0)
(1.03055 -0.099784 -1.8281e-19)
(1.08415 -0.0968752 -1.84455e-19)
(1.13663 -0.0940294 0)
(1.18802 -0.0912425 0)
(1.23833 -0.0885146 -3.78405e-19)
(1.28757 -0.0858619 0)
(1.33574 -0.0832921 3.84284e-19)
(1.38283 -0.0807892 3.85603e-19)
(1.42889 -0.0783394 0)
(1.47394 -0.0759506 0)
(1.51799 -0.0736444 -3.93378e-19)
(1.56103 -0.0714249 -1.24857e-21)
(1.60309 -0.0692782 -1.19892e-21)
(1.64422 -0.0671961 0)
(1.68449 -0.0651794 -8.03874e-19)
(1.72392 -0.0632111 0)
(1.76252 -0.0612827 0)
(1.8003 -0.0593897 0)
(1.83726 -0.0575341 4.07596e-19)
(1.87335 -0.0556948 0)
(1.90863 -0.0538703 -8.15888e-19)
(1.94313 -0.0520928 -4.09157e-19)
(1.97679 -0.0503686 0)
(2.00952 -0.0486195 -4.08978e-19)
(2.0413 -0.0467579 0)
(2.0721 -0.0447326 0)
(2.10176 -0.0424772 -1.22013e-18)
(2.13015 -0.039897 8.11113e-19)
(2.15721 -0.0369728 0)
(2.18297 -0.0338311 8.06707e-19)
(2.20744 -0.0306738 -4.02969e-19)
(2.23077 -0.0277794 0)
(2.25327 -0.0254773 0)
(2.27533 -0.0240384 0)
(2.29728 -0.0235269 -1.2584e-18)
(2.31923 -0.0237166 0)
(2.34119 -0.0241374 -4.55657e-19)
(2.36306 -0.0243544 0)
(2.38471 -0.0241276 0)
(2.40593 -0.0234137 0)
(2.42643 -0.0222544 0)
(2.44594 -0.0207365 0)
(2.46421 -0.0189614 0)
(2.4813 -0.0171899 -1.26884e-18)
(2.49706 -0.015397 0)
(2.51141 -0.0134015 -6.63303e-19)
(2.52412 -0.0111466 2.01783e-18)
(2.5352 -0.00831143 0)
(2.54427 -0.00427778 0)
(2.5512 0.00214023 -1.34883e-18)
(2.55357 0.0124729 -1.34349e-18)
(2.55625 0.0305124 1.33375e-18)
(2.54627 0.0622079 1.36479e-18)
(0.0195579 -0.800577 -7.38392e-19)
(0.0213339 -0.686588 -4.31662e-19)
(0.00397472 -0.546774 -1.98362e-19)
(-0.0210364 -0.411688 -8.06273e-20)
(-0.0512048 -0.281787 0)
(-0.088082 -0.156544 1.38417e-19)
(-0.133357 -0.0360127 -6.76396e-20)
(-0.188336 0.0794993 0)
(-0.254067 0.189855 -6.40487e-20)
(-0.331301 0.294583 0)
(-0.421248 0.393164 1.177e-19)
(-0.525869 0.485659 0)
(-0.647062 0.573372 5.22932e-20)
(-0.784918 0.658274 9.69363e-20)
(-0.936554 0.741692 -8.95313e-20)
(-1.09654 0.822415 0)
(-1.25829 0.896343 -7.66181e-20)
(-1.41579 0.958821 0)
(-1.56421 1.0067 0)
(-1.70035 1.03887 -6.24141e-20)
(-1.82307 1.05559 0)
(-1.93253 1.05787 -3.51691e-22)
(-2.02985 1.04725 0)
(-2.11682 1.02562 0)
(-2.19551 0.995268 9.28727e-22)
(-2.26787 0.9585 -4.61283e-20)
(-2.33569 0.917445 -4.58001e-20)
(-2.40043 0.873986 -4.35827e-20)
(-2.46325 0.829688 0)
(-2.52494 0.785671 -8.50739e-20)
(-2.586 0.74278 0)
(-2.64674 0.701611 -4.19812e-20)
(-2.70729 0.66253 0)
(-2.7677 0.625727 0)
(-2.8279 0.591252 4.1117e-20)
(-2.8878 0.559051 0)
(-2.94727 0.529006 -4.08627e-20)
(-3.00617 0.500947 3.50978e-22)
(-3.06436 0.474681 8.12731e-20)
(-3.12171 0.449999 -8.15745e-20)
(-3.17807 0.42669 0)
(-3.23332 0.404539 0)
(-3.28732 0.383347 -4.10401e-20)
(-3.33994 0.362919 0)
(-3.39107 0.343076 -4.11372e-20)
(-3.44058 0.323651 4.12906e-20)
(-3.48833 0.304494 4.1453e-20)
(-3.53421 0.285465 0)
(-3.57807 0.266447 -4.18091e-20)
(-3.61976 0.247327 -4.2003e-20)
(-3.65913 0.228015 8.42883e-20)
(-3.696 0.208431 -4.24205e-20)
(-3.73018 0.188511 -4.26423e-20)
(-3.76144 0.16819 0)
(-3.78957 0.147415 0)
(-3.81432 0.126135 4.33333e-20)
(-3.83542 0.104322 0)
(-3.8526 0.0819455 0)
(-3.86558 0.0589985 -8.78799e-20)
(-3.87404 0.0354695 -8.81792e-20)
(-3.87774 0.0113889 0)
(-3.87639 -0.0132236 0)
(-3.86977 -0.038282 0)
(-3.85766 -0.063685 0)