/*--------------------------------*- C++ -*----------------------------------*\
| =========                 |                                                 |
| \\      /  F ield         | OpenFOAM: The Open Source CFD Toolbox           |
|  \\    /   O peration     | Version:  2212                                  |
|   \\  /    A nd           | Website:  www.openfoam.com                      |
|    \\/     M anipulation  |                                                 |
\*---------------------------------------------------------------------------*/
FoamFile
{
    version     2.0;
    format      ascii;
    arch        "LSB;label=32;scalar=64";
    class       volScalarField;
    location    "282";
    object      epsilon;
}
// * * * * * * * * * * * * * * * * * * * * * * * * * * * * * * * * * * * * * //

dimensions      [0 2 -3 0 0 0 0];

internalField   nonuniform List<scalar> 
12225
(
1085.71
2467.78
3645.43
4414.74
4812.14
4980.49
4975.31
4926.49
4840.68
4729.13
4620.67
4517.2
4425.5
4339.51
4269.03
4198.44
4150.9
4085.45
81.2309
262.522
438.552
584.507
691.162
762.833
805.004
829.691
846.836
856.911
866.597
873.744
882.983
891
900.522
910.419
917.542
934.489
20.577
51.1756
83.4682
112.538
136.923
156.197
170.156
179.897
186.373
190.793
193.487
195.622
196.87
198.372
199.369
200.759
202.614
206.053
14.7578
21.8681
30.0192
38.5025
46.2152
53.0395
58.6215
63.2646
66.7551
69.6475
71.6127
73.3334
74.3198
75.3359
75.7619
76.305
76.6683
77.4605
14.361
16.3335
18.4559
21.4876
24.4382
27.2623
29.7361
31.9834
33.8188
35.4796
36.7451
37.9278
38.7446
39.5751
40.0596
40.6407
40.8664
41.4584
14.6446
14.954
15.4273
16.4564
17.6088
18.8289
19.9697
21.0769
22.0337
22.9483
23.6897
24.4158
24.9565
25.5272
25.8931
26.3504
26.5509
27.0045
14.7184
14.6387
14.6737
14.8757
15.2175
15.6833
16.1628
16.6724
17.1383
17.6109
18.0104
18.4207
18.7386
19.0878
19.3213
19.624
19.7638
20.0861
14.7545
14.5907
14.4691
14.4209
14.4418
14.5153
14.6476
14.8246
15.0023
15.2023
15.3793
15.576
15.7326
15.9149
16.0399
16.2084
16.2897
16.476
14.7641
14.5919
14.4345
14.3029
14.2031
14.1371
14.0973
14.0987
14.1107
14.1415
14.1783
14.2346
14.2793
14.3427
14.3852
14.4501
14.4811
14.5624
14.7656
14.5942
14.432
14.2828
14.1465
14.0296
13.9256
13.8437
13.7744
13.7224
13.6771
13.6482
13.6204
13.6063
13.5891
13.5838
13.5722
13.5819
14.7657
14.5945
14.4323
14.2806
14.137
14.0051
13.8816
13.7705
13.6679
13.5777
13.4938
13.4219
13.3537
13.2971
13.2406
13.1973
13.1473
13.1179
14.7657
14.5944
14.4323
14.2801
14.1357
14.0007
13.8728
13.754
13.6417
13.5385
13.4409
13.3523
13.2677
13.1922
13.1185
13.0549
12.9895
12.9368
14.7657
14.5941
14.4321
14.2796
14.1353
13.9995
13.8707
13.7496
13.6347
13.5271
13.4247
13.3294
13.2383
13.1542
13.0731
12.999
12.9266
12.8616
14.7657
14.594
14.4319
14.2792
14.1349
13.9987
13.8698
13.7481
13.6326
13.5236
13.4201
13.3224
13.2294
13.1417
13.0581
12.9795
12.9043
12.8337
14.7657
14.5938
14.4317
14.2789
14.1345
13.9981
13.8691
13.7471
13.6315
13.5221
13.4183
13.32
13.2265
13.1379
13.0536
12.9737
12.8975
12.8253
14.7657
14.5938
14.4316
14.2786
14.1341
13.9976
13.8685
13.7463
13.6306
13.5211
13.4171
13.3185
13.2249
13.136
13.0515
12.9713
12.8948
12.8222
14.7657
14.5937
14.4315
14.2784
14.1338
13.9972
13.868
13.7457
13.6299
13.5202
13.4162
13.3174
13.2237
13.1347
13.0501
12.9696
12.8931
12.8203
14.7657
14.5937
14.4314
14.2783
14.1336
13.9969
13.8677
13.7453
13.6294
13.5196
13.4155
13.3167
13.2228
13.1337
13.049
12.9685
12.8919
12.819
14.7657
14.5937
14.4314
14.2782
14.1336
13.9969
13.8675
13.7451
13.6292
13.5194
13.4152
13.3163
13.2224
13.1333
13.0485
12.9679
12.8913
12.8184
14.7657
14.5937
14.4315
14.2783
14.1337
13.997
13.8677
13.7453
13.6294
13.5196
13.4154
13.3166
13.2227
13.1336
13.0489
12.9683
12.8917
12.8188
14.7657
14.5937
14.4316
14.2785
14.1339
13.9972
13.868
13.7457
13.63
13.5202
13.4163
13.3176
13.2241
13.1352
13.051
12.9708
12.8948
12.8224
14.7657
14.5938
14.4317
14.2786
14.1343
13.9977
13.869
13.7472
13.6325
13.524
13.4219
13.3252
13.2344
13.1482
13.0676
12.9907
12.9192
12.8504
14.7657
14.5937
14.4319
14.2789
14.1361
14.002
13.8782
13.7628
13.6573
13.5595
13.4707
13.3883
13.3141
13.2446
13.1829
13.1237
13.0729
13.0213
14.7644
14.5922
14.4335
14.2871
14.1628
14.0551
13.9689
13.8978
13.8459
13.8048
13.7783
13.758
13.7483
13.7412
13.7424
13.7433
13.7528
13.7515
14.7478
14.5944
14.4764
14.4101
14.4234
14.4613
14.5554
14.6706
14.8169
14.9612
15.1237
15.2711
15.4319
15.5683
15.7196
15.8372
15.978
16.0719
14.6504
14.7821
14.9369
15.3416
15.9227
16.5508
17.2338
17.878
18.5377
19.1217
19.7127
20.2096
20.72
21.1248
21.5587
21.8755
22.2452
22.4805
14.572
16.1273
17.9726
20.4196
22.9236
25.2654
27.5468
29.5525
31.4906
33.1025
34.6855
35.9137
37.1756
38.0656
39.0608
39.6723
40.4608
40.8522
16.5442
25.8796
36.7208
46.5546
55.8657
64.2733
72.1013
78.7409
84.8017
89.5901
94.0126
97.1742
100.312
102.189
104.451
105.414
107.132
107.488
45.7965
105.211
164.439
217.233
267.842
313.448
353.657
386.102
413.216
433.649
450.586
462.692
472.88
479.758
486.798
490.285
496.129
497.461
632.343
1081.16
1534.74
1880.99
2183.47
2431.77
2631.53
2773.03
2876.15
2932.21
2969.07
2970.17
2963.16
2946.23
2918.32
2885.07
2849.27
2811.95
0.169519
0.170423
0.295208
0.431907
0.564852
0.687543
0.798383
0.897667
0.98669
1.07246
1.15984
1.24978
1.34496
1.44781
1.55978
1.68128
1.81232
1.95383
2.1109
2.29882
2.54134
2.84083
3.19105
3.5933
4.05429
4.58322
5.19058
5.88682
6.68123
7.5794
8.58342
9.6972
10.922
12.2564
13.6998
15.2507
16.9082
18.6711
20.5389
22.5116
24.5902
26.7773
29.0773
31.4978
34.0502
36.752
39.6289
42.7189
45.9484
49.3284
52.8583
56.5458
60.3931
64.4061
68.5885
72.9452
77.4804
82.1985
87.1037
92.2002
97.4915
102.982
108.673
114.57
120.675
126.989
133.515
140.255
147.208
154.377
161.759
169.357
177.166
185.188
193.417
201.853
210.49
219.325
228.353
237.567
246.962
256.53
266.264
276.154
286.191
296.367
306.668
317.085
327.604
338.212
348.896
359.637
370.421
381.227
392.034
402.82
413.559
424.223
434.784
445.221
455.526
465.737
475.877
485.846
495.678
505.341
514.828
524.118
533.197
542.047
550.651
558.995
567.062
574.838
582.306
589.455
596.268
602.736
608.843
614.581
619.937
624.901
629.463
633.616
637.352
640.666
643.552
646.008
648.029
649.611
650.743
651.468
651.817
651.638
650.97
649.844
648.391
646.582
644.279
641.587
638.491
635.01
631.151
626.929
622.356
617.442
612.2
606.643
600.786
594.645
588.235
581.572
574.672
567.553
560.23
552.722
545.046
537.219
529.259
521.184
513.013
504.768
496.476
488.191
480.124
474.084
470.681
467.577
464.473
461.341
458.184
455.002
451.793
448.543
445.218
441.739
437.951
433.375
427.118
402.817
0.659117
0.3902
0.354475
0.368618
0.402938
0.448271
0.501267
0.561337
0.629439
0.707484
0.796752
0.897877
1.01226
1.14165
1.28786
1.45272
1.63824
1.84683
2.08138
2.34451
2.64385
2.98368
3.3652
3.79016
4.26111
4.78066
5.35045
5.96972
6.63332
7.33285
8.0766
8.86383
9.69387
10.5651
11.4778
12.4302
13.4201
14.4486
15.5172
16.6278
17.7827
18.9849
20.2376
21.5446
22.9096
24.3362
25.8271
27.3824
28.9969
30.6744
32.4158
34.223
36.0975
38.041
40.0548
42.1406
44.2995
46.5329
48.8419
51.2276
53.691
56.2329
58.854
61.5549
64.3361
67.1978
70.1401
73.1632
76.2667
79.4502
82.7133
86.0552
89.4748
92.9711
96.5426
100.188
103.905
107.692
111.546
115.465
119.447
123.488
127.585
131.734
135.933
140.175
144.459
148.778
153.127
157.502
161.896
166.304
170.717
175.13
179.533
183.921
188.283
192.615
196.912
201.177
205.424
209.69
213.986
218.215
222.392
226.504
230.548
234.516
238.402
242.2
245.903
249.504
252.999
256.38
259.643
262.781
265.788
268.661
271.394
273.982
276.421
278.706
280.833
282.8
284.603
286.239
287.707
289.003
290.127
291.077
291.852
292.457
292.886
293.119
293.165
293.037
292.761
292.326
291.703
290.916
289.963
288.848
287.574
286.147
284.569
282.845
280.98
278.978
276.845
274.586
272.207
269.714
267.113
264.41
261.612
258.725
255.756
252.712
249.599
246.425
243.198
239.926
236.62
233.301
230.044
227.189
224.869
222.675
220.502
218.331
216.159
213.989
211.823
209.663
207.509
205.362
203.206
201.081
198.898
195.219
1.4263
0.699009
0.552085
0.522913
0.534036
0.567368
0.617075
0.680979
0.758846
0.851759
0.961117
1.08829
1.23463
1.40147
1.59007
1.80177
2.03804
2.30071
2.59205
2.91508
3.26939
3.6543
4.06949
4.51446
4.98854
5.49108
6.02168
6.58081
7.17129
7.79812
8.45665
9.14682
9.86947
10.6258
11.4038
12.2084
13.0482
13.9251
14.8406
15.7965
16.7942
17.8352
18.921
20.0531
21.2328
22.4611
23.739
25.0669
26.4445
27.8731
29.3538
30.8875
32.4754
34.1184
35.8176
37.5737
39.3878
41.2607
43.193
45.1854
47.2383
49.3524
51.528
53.7655
56.0652
58.4272
60.8515
63.3381
65.8868
68.4973
71.1692
73.9018
76.6944
79.5462
82.4561
85.423
88.4454
91.522
94.6508
97.8302
101.058
104.332
107.65
111.008
114.405
117.837
121.301
124.793
128.31
131.847
135.401
138.967
142.54
146.116
149.691
153.26
156.82
160.368
163.904
167.428
170.944
174.456
177.948
181.397
184.802
188.157
191.457
194.695
197.867
200.968
203.992
206.934
209.789
212.553
215.219
217.785
220.245
222.595
224.831
226.949
228.946
230.817
232.561
234.173
235.652
236.995
238.201
239.267
240.192
240.976
241.617
242.115
242.468
242.66
242.711
242.625
242.404
242.048
241.548
240.911
240.138
239.234
238.2
237.04
235.757
234.356
232.838
231.21
229.474
227.636
225.7
223.671
221.554
219.353
217.075
214.724
212.306
209.826
207.291
204.705
202.076
199.409
196.715
194.007
191.329
188.799
186.469
184.221
182
179.792
177.593
175.407
173.236
171.087
168.966
166.888
164.868
162.985
161.246
159.516
2.2317
1.00334
0.768198
0.712142
0.714955
0.748752
0.804687
0.879868
0.973812
1.08715
1.22096
1.37637
1.55438
1.75573
1.98097
2.23045
2.50446
2.80325
3.12697
3.47558
3.8484
4.24467
4.66386
5.10572
5.57036
6.05831
6.57049
7.10827
7.67326
8.26669
8.88851
9.53899
10.2182
10.9254
11.6701
12.4531
13.2731
14.1308
15.0275
15.9648
16.9437
17.9644
19.0278
20.1346
21.2853
22.4801
23.7183
25.0014
26.3316
27.7098
29.137
30.6144
32.1426
33.7229
35.3559
37.0427
38.7841
40.581
42.4341
44.344
46.3115
48.3369
50.421
52.5641
54.7667
57.029
59.3513
61.7337
64.1762
66.6787
69.2409
71.8626
74.5431
77.282
80.0784
82.9313
85.8396
88.8021
91.8173
94.8835
97.9989
101.162
104.369
107.619
110.909
114.236
117.596
120.988
124.407
127.849
131.311
134.79
138.28
141.778
145.28
148.783
152.283
155.777
159.263
162.74
166.206
169.653
173.07
176.449
179.784
183.07
186.301
189.471
192.575
195.608
198.564
201.438
204.226
206.921
209.52
212.018
214.41
216.692
218.859
220.909
222.837
224.64
226.315
227.859
229.27
230.545
231.683
232.682
233.54
234.258
234.833
235.266
235.551
235.675
235.677
235.535
235.256
234.841
234.287
233.598
232.776
231.825
230.747
229.546
228.225
226.788
225.239
223.583
221.822
219.963
218.01
215.967
213.84
211.634
209.353
207.004
204.592
202.122
199.6
197.031
194.422
191.779
189.111
186.431
183.765
181.17
178.674
176.234
173.822
171.429
169.053
166.697
164.367
162.068
159.813
157.62
155.515
153.574
151.822
150.275
2.94822
1.29347
0.992684
0.918963
0.917785
0.955209
1.0196
1.10691
1.21601
1.34706
1.50062
1.67728
1.87741
2.10106
2.34797
2.61765
2.90953
3.22296
3.55736
3.91219
4.28702
4.68165
5.09625
5.53134
5.98785
6.46698
6.97013
7.49883
8.05452
8.63848
9.25178
9.89555
10.571
11.2799
12.0245
12.8059
13.6246
14.4811
15.3764
16.3109
17.2855
18.3015
19.3598
20.4612
21.6065
22.7968
24.0337
25.3179
26.6496
28.0298
29.4596
30.9398
32.4717
34.0562
35.6944
37.3874
39.1362
40.942
42.8058
44.7286
46.7109
48.7535
50.8573
53.0229
55.2511
57.5423
59.8972
62.316
64.7992
67.3468
69.9589
72.6355
75.3763
78.1809
81.0487
83.979
86.9709
90.0232
93.1347
96.3038
99.5287
102.807
106.138
109.518
112.944
116.414
119.924
123.472
127.053
130.664
134.301
137.96
141.637
145.327
149.026
152.731
156.436
160.138
163.831
167.512
171.173
174.809
178.411
181.973
185.488
188.95
192.353
195.692
198.959
202.149
205.256
208.275
211.2
214.025
216.745
219.356
221.852
224.228
226.48
228.605
230.598
232.456
234.175
235.753
237.186
238.474
239.613
240.603
241.441
242.128
242.663
243.044
243.257
243.32
243.243
243.013
242.636
242.113
241.444
240.633
239.681
238.594
237.374
236.024
234.55
232.955
231.244
229.421
227.491
225.46
223.332
221.113
218.809
216.424
213.965
211.437
208.846
206.198
203.5
200.756
197.973
195.159
192.322
189.471
186.628
183.823
181.073
178.364
175.684
173.028
170.395
167.791
165.221
162.695
160.225
157.836
155.557
153.458
151.559
149.837
3.5443
1.5745
1.21955
1.13172
1.12827
1.16961
1.24163
1.339
1.45983
1.60362
1.77036
1.96006
2.17251
2.40722
2.66345
2.94033
3.23698
3.55264
3.88676
4.23906
4.60959
4.99876
5.40732
5.83631
6.28705
6.76099
7.25967
7.78461
8.33728
8.91907
9.5313
10.1753
10.8524
11.5639
12.3112
13.0954
13.9172
14.7776
15.6774
16.6176
17.599
18.6229
19.6901
20.8017
21.9587
23.1622
24.4134
25.7133
27.0628
28.4631
29.9154
31.4209
32.981
34.5969
36.2698
38.0012
39.7923
41.6443
43.5583
45.5355
47.5775
49.6856
51.8608
54.1043
56.4171
58.8002
61.2544
63.7806
66.3792
69.0508
71.7958
74.6143
77.5064
80.4719
83.5103
86.6213
89.8038
93.0569
96.3792
99.7693
103.225
106.745
110.326
113.966
117.662
121.411
125.209
129.052
132.937
136.86
140.815
144.798
148.805
152.831
156.869
160.916
164.966
169.012
173.049
177.071
181.069
185.038
188.969
192.856
196.69
200.466
204.176
207.814
211.372
214.844
218.222
221.502
224.676
227.738
230.682
233.502
236.194
238.752
241.171
243.446
245.574
247.55
249.371
251.034
252.535
253.874
255.048
256.055
256.894
257.565
258.067
258.394
258.537
258.53
258.356
258.016
257.513
256.85
256.028
255.051
253.923
252.646
251.226
249.667
247.974
246.151
244.203
242.137
239.958
237.671
235.282
232.798
230.224
227.567
224.833
222.029
219.161
216.235
213.258
210.237
207.178
204.089
200.978
197.855
194.734
191.636
188.574
185.545
182.545
179.574
176.633
173.728
170.867
168.061
165.325
162.682
160.166
157.836
155.697
153.669
4.01822
1.83084
1.43704
1.33876
1.33375
1.37802
1.45548
1.55966
1.68787
1.83901
2.01254
2.20799
2.42479
2.6622
2.91934
3.19531
3.48935
3.80091
4.12974
4.47594
4.83998
5.22263
5.62497
6.04826
6.49393
6.96348
7.45843
7.98028
8.53047
9.11042
9.72146
10.3649
11.0421
11.7543
12.5026
13.2883
14.1123
14.9758
15.8798
16.8254
17.8139
18.8463
19.9238
21.0477
22.2192
23.4396
24.7101
26.0321
27.407
28.8362
30.3213
31.8638
33.4653
35.1274
36.8518
38.6401
40.4939
42.415
44.405
46.4656
48.5984
50.8053
53.0878
55.4474
57.8855
60.4037
63.003
65.6847
68.4498
71.2991
74.2333
77.2529
80.3582
83.5492
86.8257
90.1872
93.6331
97.1623
100.773
104.465
108.235
112.081
116.001
119.991
124.049
128.17
132.351
136.587
140.874
145.207
149.581
153.99
158.429
162.891
167.37
171.86
176.355
180.846
185.327
189.789
194.226
198.627
202.986
207.294
211.543
215.725
219.833
223.857
227.791
231.626
235.355
238.971
242.465
245.832
249.065
252.156
255.1
257.892
260.525
262.995
265.296
267.426
269.38
271.154
272.746
274.153
275.374
276.407
277.251
277.906
278.371
278.632
278.707
278.602
278.311
277.837
277.182
276.348
275.339
274.159
272.813
271.304
269.638
267.82
265.856
263.751
261.512
259.145
256.656
254.052
251.34
248.527
245.619
242.624
239.548
236.4
233.186
229.913
226.589
223.222
219.817
216.384
212.93
209.465
206.001
202.553
199.131
195.74
192.379
189.052
185.762
182.516
179.324
176.197
173.153
170.214
167.413
164.8
162.363
159.977
4.42846
2.07057
1.64255
1.53313
1.52494
1.56964
1.64946
1.75677
1.88812
2.04184
2.21693
2.41265
2.62825
2.86292
3.11588
3.38642
3.67402
3.97843
4.2997
4.63823
4.99472
5.37015
5.76568
6.18265
6.62245
7.08654
7.57642
8.09354
8.63935
9.21525
9.82263
10.4628
11.1372
11.847
12.5934
13.3777
14.2013
15.0655
15.9716
16.921
17.9149
18.9549
20.0421
21.1782
22.3649
23.6035
24.8956
26.2428
27.6471
29.1102
30.6342
32.221
33.8726
35.591
37.3783
39.2367
41.1682
43.175
45.2593
47.4233
49.6691
51.999
54.415
56.9192
59.5135
62.1998
64.9799
67.8552
70.8273
73.8973
77.0664
80.3353
83.7044
87.1742
90.7445
94.4151
98.1851
102.054
106.019
110.08
114.234
118.478
122.81
127.226
131.723
136.295
140.939
145.649
150.42
155.246
160.121
165.039
169.992
174.973
179.976
184.991
190.011
195.028
200.032
205.014
209.965
214.877
219.738
224.541
229.275
233.932
238.502
242.977
247.347
251.603
255.737
259.74
263.604
267.32
270.882
274.283
277.514
280.57
283.445
286.133
288.63
290.929
293.028
294.924
296.611
298.09
299.357
300.412
301.253
301.881
302.291
302.475
302.458
302.233
301.8
301.162
300.323
299.286
298.054
296.634
295.029
293.247
291.291
289.17
286.889
284.455
281.876
279.158
276.31
273.337
270.25
267.055
263.76
260.373
256.902
253.357
249.743
246.07
242.346
238.579
234.776
230.946
227.097
223.239
219.382
215.538
211.719
207.929
204.173
200.456
196.784
193.164
189.607
186.126
182.739
179.469
176.345
173.408
170.632
167.864
5.29106
2.3845
1.8576
1.71751
1.69804
1.73791
1.81596
1.92261
2.05336
2.20586
2.37873
2.57101
2.78189
3.01064
3.25663
3.51939
3.79865
4.0944
4.40694
4.73681
5.08484
5.45209
5.83975
6.24912
6.68148
7.13806
7.6205
8.13033
8.66899
9.23794
9.83862
10.4725
11.1411
11.8459
12.5883
13.3693
14.1904
15.0532
15.9591
16.9098
17.9071
18.9526
20.0486
21.1972
22.3997
23.658
24.9739
26.349
27.786
29.2874
30.8558
32.4935
34.2032
35.9873
37.8484
39.7892
41.8124
43.9207
46.1169
48.4036
50.7838
53.2601
55.8351
58.5116
61.2921
64.1788
67.1741
70.2801
73.4986
76.8311
80.2793
83.844
87.5261
91.326
95.2438
99.2792
103.431
107.699
112.081
116.575
121.179
125.888
130.701
135.613
140.618
145.713
150.892
156.149
161.477
166.869
172.318
177.816
183.356
188.927
194.522
200.132
205.745
211.353
216.945
222.51
228.038
233.519
238.94
244.292
249.564
254.746
259.827
264.796
269.643
274.359
278.932
283.355
287.617
291.709
295.623
299.352
302.886
306.22
309.346
312.259
314.953
317.423
319.665
321.675
323.45
324.988
326.287
327.345
328.164
328.743
329.072
329.162
329.019
328.642
328.035
327.2
326.141
324.863
323.37
321.669
319.766
317.667
315.38
312.911
310.269
307.461
304.496
301.382
298.128
294.742
291.233
287.61
283.882
280.059
276.148
272.16
268.103
263.986
259.818
255.608
251.364
247.095
242.81
238.518
234.23
229.956
225.706
221.488
217.308
213.173
209.091
205.069
201.12
197.258
193.5
189.868
186.389
183.097
179.954
176.79
6.33307
2.72249
2.06615
1.88379
1.84711
1.87772
1.9504
2.0532
2.18036
2.32887
2.49696
2.68348
2.88761
3.1087
3.34628
3.60008
3.87003
4.15632
4.45934
4.77965
5.11805
5.47582
5.85427
6.25484
6.67922
7.12867
7.60408
8.1068
8.63826
9.19993
9.79332
10.4199
11.0813
11.7789
12.5143
13.2891
14.1052
14.9645
15.8689
16.8204
17.8209
18.8725
19.977
21.1367
22.3539
23.6312
24.9714
26.378
27.8525
29.3982
31.0182
32.7158
34.4938
36.3554
38.3039
40.3424
42.4743
44.7031
47.032
49.4646
52.0043
54.6543
57.4181
60.299
63.2999
66.4238
69.6736
73.0518
76.5607
80.2023
83.9783
87.89
91.9383
96.1239
100.447
104.906
109.502
114.232
119.095
124.087
129.207
134.45
139.811
145.287
150.871
156.558
162.341
168.212
174.164
180.189
186.278
192.422
198.61
204.833
211.081
217.341
223.604
229.856
236.087
242.284
248.435
254.527
260.549
266.488
272.332
278.07
283.689
289.177
294.523
299.716
304.745
309.599
314.268
318.741
323.01
327.066
330.9
334.505
337.873
340.999
343.876
346.499
348.864
350.967
352.805
354.375
355.678
356.711
357.475
357.969
358.188
358.144
357.837
357.27
356.447
355.374
354.054
352.493
350.696
348.672
346.426
343.968
341.305
338.445
335.399
332.174
328.78
325.227
321.525
317.683
313.711
309.62
305.42
301.12
296.731
292.262
287.724
283.127
278.48
273.792
269.073
264.331
259.578
254.821
250.07
245.337
240.632
235.962
231.335
226.761
222.246
217.801
213.439
209.173
205.021
201.005
197.147
193.476
189.945
186.378
7.3512
3.03902
2.25109
2.02374
1.96733
1.9861
2.05094
2.14756
2.26902
2.41164
2.5733
2.75268
2.94893
3.16149
3.38998
3.63417
3.89415
4.17048
4.46393
4.7757
5.10635
5.45648
5.82711
6.21941
6.63444
7.07326
7.53738
8.02854
8.54836
9.09844
9.68039
10.2959
10.9467
11.6345
12.3614
13.1292
13.9404
14.7968
15.7007
16.6543
17.6601
18.7204
19.838
21.0155
22.2561
23.5624
24.9374
26.383
27.903
29.5025
31.1861
32.9572
34.8194
36.7764
38.8321
40.9904
43.2554
45.6312
48.1219
50.7318
53.4649
56.3253
59.317
62.4439
65.7096
69.1179
72.6718
76.3743
80.2282
84.2358
88.3988
92.7188
97.1967
101.833
106.627
111.579
116.688
121.95
127.364
132.927
138.634
144.481
150.463
156.573
162.805
169.152
175.605
182.157
188.796
195.515
202.303
209.147
216.038
222.963
229.91
236.866
243.818
250.753
257.657
264.516
271.316
278.045
284.687
291.229
297.658
303.961
310.123
316.132
321.976
327.642
333.117
338.391
343.451
348.288
352.891
357.251
361.359
365.206
368.786
372.091
375.116
377.855
380.304
382.459
384.318
385.879
387.141
388.103
388.765
389.129
389.195
388.967
388.446
387.64
386.555
385.196
383.567
381.675
379.527
377.132
374.499
371.635
368.552
365.258
361.764
358.079
354.216
350.184
345.995
341.659
337.188
332.593
327.885
323.075
318.175
313.195
308.146
303.039
297.884
292.691
287.471
282.232
276.985
271.74
266.506
261.294
256.113
250.974
245.885
240.854
235.892
231.009
226.218
221.532
216.97
212.552
208.298
204.231
200.301
196.328
8.30076
3.32045
2.40597
2.13418
2.05718
2.0628
2.11827
2.20716
2.32149
2.45699
2.61121
2.78265
2.97036
3.17404
3.39369
3.62978
3.88216
4.15081
4.43607
4.73829
5.05799
5.39659
5.75531
6.13535
6.53799
6.96474
7.41736
7.89725
8.40599
8.94529
9.51695
10.1229
10.765
11.4455
12.1666
12.9306
13.74
14.5973
15.5051
16.4662
17.4835
18.56
19.6988
20.9033
22.1776
23.5241
24.9453
26.4436
28.0273
29.7005
31.4681
33.336
35.3084
37.3896
39.584
41.8965
44.3318
46.895
49.5908
52.4243
55.4003
58.5236
61.7989
65.2305
68.8229
72.5798
76.505
80.6017
84.8728
89.3206
93.947
98.7532
103.74
108.907
114.255
119.78
125.483
131.359
137.406
143.618
149.992
156.52
163.196
170.013
176.963
184.036
191.224
198.515
205.898
213.363
220.897
228.486
236.119
243.78
251.457
259.133
266.796
274.428
282.017
289.545
296.997
304.359
311.614
318.749
325.747
332.595
339.277
345.78
352.09
358.194
364.078
369.73
375.139
380.293
385.181
389.794
394.122
398.157
401.892
405.319
408.432
411.228
413.7
415.847
417.665
419.154
420.313
421.142
421.642
421.816
421.667
421.194
420.401
419.299
417.894
416.193
414.2
411.924
409.374
406.558
403.488
400.173
396.624
392.852
388.868
384.685
380.313
375.765
371.054
366.191
361.189
356.06
350.816
345.47
340.033
334.517
328.934
323.296
317.613
311.896
306.157
300.404
294.648
288.9
283.169
277.465
271.8
266.181
260.62
255.126
249.708
244.378
239.149
234.035
229.054
224.223
219.562
215.091
210.755
206.38
9.15812
3.56164
2.52944
2.21552
2.11739
2.10987
2.15502
2.23521
2.34142
2.46905
2.61564
2.77998
2.96106
3.15797
3.37023
3.5974
3.83947
4.0972
4.37117
4.66213
4.97124
5.29941
5.64771
6.01735
6.40971
6.8263
7.26881
7.7389
8.2384
8.76922
9.33342
9.9332
10.5709
11.2491
11.9702
12.7372
13.5527
14.4198
15.3419
16.3225
17.3652
18.4732
19.6498
20.8982
22.2201
23.6218
25.1098
26.691
28.3701
30.1524
32.0435
34.0495
36.1765
38.4295
40.8141
43.336
46.0009
48.8147
51.7829
54.9113
58.2053
61.6704
65.3117
69.134
73.142
77.3397
81.7309
86.3187
91.1058
96.0941
101.285
106.68
112.277
118.077
124.078
130.277
136.671
143.256
150.027
156.978
164.103
171.393
178.84
186.435
194.168
202.028
210.004
218.083
226.252
234.498
242.807
251.164
259.554
267.961
276.37
284.764
293.127
301.442
309.692
317.862
325.933
333.89
341.715
349.393
356.907
364.243
371.384
378.315
385.023
391.493
397.711
403.665
409.343
414.732
419.823
424.604
429.067
433.204
437.006
440.468
443.584
446.349
448.759
450.812
452.505
453.839
454.813
455.429
455.689
455.599
455.161
454.364
453.23
451.764
449.975
447.868
445.451
442.733
439.725
436.437
432.88
429.065
425.006
420.713
416.201
411.481
406.566
401.471
396.207
390.79
385.231
379.545
373.744
367.841
361.851
355.784
349.653
343.472
337.25
331
324.732
318.458
312.188
305.931
299.699
293.502
287.349
281.25
275.217
269.258
263.384
257.607
251.94
246.397
240.994
235.749
230.677
225.8
221.06
216.292
9.91262
3.76157
2.62248
2.26971
2.15091
2.13061
2.16514
2.23665
2.33597
2.45735
2.59757
2.75452
2.92693
3.11455
3.3172
3.53491
3.76812
4.01711
4.28242
4.5648
4.86524
5.18478
5.52464
5.88618
6.27094
6.68059
7.11698
7.58206
8.07788
8.60668
9.17088
9.77307
10.4161
11.1032
11.8378
12.6226
13.461
14.3566
15.3128
16.3322
17.4173
18.5749
19.8104
21.1294
22.5389
24.0439
25.6506
27.3658
29.1958
31.147
33.2263
35.4414
37.7978
40.3025
42.9625
45.7846
48.7756
51.9419
55.2897
58.8251
62.554
66.482
70.6144
74.9558
79.5107
84.2829
89.2753
94.4905
99.9301
105.595
111.486
117.601
123.94
130.5
137.277
144.267
151.466
158.866
166.461
174.244
182.204
190.332
198.619
207.051
215.618
224.306
233.102
241.992
250.96
259.991
269.07
278.18
287.304
296.425
305.526
314.589
323.597
332.531
341.374
350.108
358.715
367.178
375.479
383.601
391.529
399.244
406.733
413.979
420.968
427.685
434.117
440.25
446.073
451.574
456.743
461.569
466.044
470.159
473.908
477.285
480.284
482.902
485.136
486.983
488.443
489.516
490.204
490.507
490.433
489.992
489.159
487.961
486.404
484.499
482.251
479.669
476.762
473.541
470.017
466.202
462.108
457.749
453.136
448.284
443.207
437.918
432.432
426.764
420.926
414.934
408.802
402.544
396.174
389.706
383.154
376.531
369.849
363.122
356.362
349.58
342.787
335.996
329.215
322.457
315.73
309.046
302.414
295.845
289.348
282.934
276.613
270.398
264.3
258.335
252.518
246.864
241.388
236.111
230.975
225.831
10.5553
3.91873
2.68625
2.29937
2.16189
2.13005
2.15627
2.22044
2.31159
2.42462
2.55659
2.70571
2.87104
3.05185
3.24786
3.45909
3.68584
3.9286
4.18804
4.46502
4.76055
5.07587
5.41237
5.77163
6.15545
6.56589
7.00546
7.47645
7.98113
8.52218
9.10251
9.72518
10.3932
11.109
11.8748
12.6963
13.5787
14.5267
15.5454
16.6407
17.8188
19.0848
20.4453
21.9072
23.4782
25.1653
26.9758
28.9173
30.9975
33.2242
35.6055
38.1495
40.8638
43.7566
46.8363
50.1113
53.5889
57.2754
61.1768
65.2988
69.6468
74.2258
79.0401
84.0934
89.3887
94.9282
100.713
106.744
113.021
119.543
126.307
133.31
140.548
148.016
155.709
163.618
171.738
180.058
188.569
197.261
206.123
215.142
224.305
233.6
243.012
252.525
262.125
271.796
281.521
291.284
301.066
310.852
320.621
330.358
340.043
349.658
359.184
368.604
377.899
387.05
396.04
404.851
413.466
421.867
430.037
437.962
445.624
453.008
460.101
466.888
473.356
479.493
485.286
490.725
495.799
500.5
504.819
508.75
512.285
515.42
518.15
520.474
522.387
523.89
524.983
525.664
525.943
525.82
525.308
524.381
523.066
521.37
519.301
516.871
514.086
510.955
507.49
503.703
499.606
495.212
490.535
485.587
480.384
474.941
469.271
463.389
457.312
451.053
444.629
438.053
431.342
424.51
417.571
410.54
403.432
396.26
389.037
381.776
374.49
367.19
359.889
352.597
345.324
338.082
330.881
323.729
316.639
309.618
302.678
295.829
289.082
282.447
275.938
269.568
263.352
257.305
251.44
245.778
240.262
234.765
11.1342
4.04533
2.72794
2.31068
2.15699
2.11491
2.13093
2.18616
2.27015
2.37708
2.50365
2.64796
2.80887
2.98575
3.17838
3.38687
3.61164
3.85347
4.11357
4.39277
4.69229
5.01368
5.3587
5.7293
6.12756
6.55553
7.0148
7.50782
8.03887
8.61182
9.23063
9.89951
10.623
11.4064
12.2555
13.1752
14.1716
15.2513
16.4213
17.6893
19.0632
20.5507
22.1603
23.9006
25.7808
27.8097
29.9965
32.3502
34.8799
37.5944
40.5018
43.6087
46.9255
50.4621
54.2287
58.2368
62.4929
66.9997
71.7606
76.779
82.0578
87.5992
93.4047
99.4749
105.809
112.407
119.265
126.381
133.75
141.368
149.229
157.325
165.649
174.193
182.948
191.903
201.047
210.37
219.858
229.5
239.281
249.187
259.204
269.317
279.51
289.767
300.072
310.407
320.755
331.1
341.423
351.708
361.935
372.086
382.145
392.092
401.909
411.579
421.083
430.405
439.526
448.43
457.1
465.519
473.672
481.543
489.116
496.379
503.316
509.916
516.166
522.054
527.57
532.703
537.444
541.787
545.722
549.245
552.35
555.033
557.293
559.125
560.53
561.508
562.059
562.18
561.909
561.205
560.081
558.554
556.628
554.315
551.624
548.564
545.145
541.376
537.272
532.844
528.106
523.072
517.756
512.173
506.338
500.266
493.973
487.474
480.785
473.921
466.899
459.734
452.44
445.035
437.532
429.947
422.293
414.585
406.837
399.06
391.268
383.472
375.684
367.915
360.176
352.476
344.826
337.235
329.712
322.268
314.913
307.655
300.507
293.478
286.581
279.83
273.238
266.819
260.585
254.559
248.684
242.862
11.6661
4.14666
2.75109
2.30754
2.14004
2.08845
2.09824
2.14919
2.23023
2.33547
2.46169
2.60711
2.77046
2.95125
3.14941
3.36525
3.59932
3.85221
4.12415
4.41722
4.73366
5.07577
5.44606
5.84733
6.28273
6.75586
7.27114
7.833
8.44584
9.1149
9.84607
10.6458
11.521
12.4795
13.5294
14.6789
15.9367
17.3123
18.8158
20.4576
22.2485
24.1993
26.321
28.6246
31.1212
33.8212
36.735
39.8726
43.2436
46.8567
50.7193
54.8385
59.2224
63.8786
68.8148
74.0394
79.5526
85.3517
91.4347
97.7991
104.442
111.36
118.548
126.001
133.713
141.676
149.884
158.327
166.997
175.885
184.979
194.271
203.747
213.398
223.211
233.175
243.275
253.5
263.835
274.267
284.782
295.365
306.002
316.677
327.375
338.081
348.778
359.451
370.083
380.659
391.162
401.575
411.882
422.066
432.111
442
451.717
461.245
470.568
479.671
488.536
497.15
505.496
513.559
521.325
528.78
535.911
542.704
549.147
555.23
560.94
566.268
571.204
575.739
579.867
583.58
586.872
589.739
592.178
594.182
595.756
596.895
597.599
597.871
597.715
597.148
596.133
594.706
592.867
590.624
587.985
584.961
581.563
577.801
573.682
569.221
564.43
559.323
553.914
548.218
542.25
536.024
529.556
522.861
515.957
508.857
501.579
494.138
486.55
478.831
470.995
463.06
455.038
446.947
438.798
430.608
422.387
414.15
405.909
397.674
389.458
381.271
373.123
365.023
356.982
349.007
341.11
333.298
325.58
317.967
310.468
303.095
295.858
288.771
281.846
275.097
268.534
262.182
255.984
249.883
12.1291
4.21727
2.7584
2.29683
2.12132
2.06733
2.07762
2.13133
2.21704
2.32866
2.46257
2.61619
2.78938
2.98221
3.19514
3.42904
3.68521
3.96547
4.27246
4.6085
4.97666
5.3806
5.82448
6.31302
6.85166
7.44662
8.10493
8.83393
9.64139
10.536
11.5276
12.627
13.8454
15.1952
16.6888
18.3393
20.16
22.1648
24.3681
26.7837
29.425
32.3049
35.436
38.8303
42.4982
46.4485
50.6885
55.2251
60.0647
65.2107
70.6639
76.4252
82.4982
88.8825
95.5819
102.587
109.878
117.447
125.283
133.377
141.717
150.291
159.089
168.099
177.308
186.704
196.277
206.013
215.9
225.928
236.084
246.356
256.733
267.204
277.756
288.378
299.058
309.785
320.546
331.329
342.122
352.912