/*--------------------------------*- C++ -*----------------------------------*\
| =========                 |                                                 |
| \\      /  F ield         | OpenFOAM: The Open Source CFD Toolbox           |
|  \\    /   O peration     | Version:  2212                                  |
|   \\  /    A nd           | Website:  www.openfoam.com                      |
|    \\/     M anipulation  |                                                 |
\*---------------------------------------------------------------------------*/
FoamFile
{
    version     2.0;
    format      ascii;
    arch        "LSB;label=32;scalar=64";
    class       volScalarField;
    location    "282";
    object      k;
}
// * * * * * * * * * * * * * * * * * * * * * * * * * * * * * * * * * * * * * //

dimensions      [0 2 -2 0 0 0 0];

internalField   nonuniform List<scalar> 
12225
(
0.571497
0.98765
1.28116
1.45558
1.54167
1.57742
1.57567
1.56723
1.54713
1.52372
1.50045
1.478
1.45794
1.43899
1.42337
1.40762
1.39701
1.38222
0.438453
0.496876
0.521952
0.534906
0.542879
0.547414
0.550226
0.552236
0.555989
0.559479
0.565523
0.57118
0.579495
0.586962
0.5967
0.605385
0.615253
0.625302
0.387571
0.417489
0.424189
0.421528
0.415039
0.40497
0.393798
0.382813
0.371927
0.36243
0.353237
0.346114
0.338974
0.334345
0.32911
0.326711
0.323047
0.322344
0.376181
0.384816
0.388124
0.387415
0.385434
0.381138
0.375682
0.369562
0.363114
0.356562
0.350107
0.343801
0.33782
0.33206
0.326778
0.32168
0.317163
0.31271
0.374178
0.375374
0.376396
0.375929
0.374798
0.372507
0.369615
0.366136
0.362484
0.358469
0.354556
0.350368
0.346521
0.342382
0.338792
0.334818
0.331604
0.327842
0.373737
0.372544
0.371997
0.371082
0.369917
0.368266
0.366339
0.364031
0.36164
0.358967
0.356373
0.353536
0.350915
0.348046
0.34552
0.3427
0.340347
0.337623
0.373769
0.371726
0.370231
0.368831
0.367465
0.36594
0.364344
0.362551
0.360733
0.358749
0.356812
0.35473
0.352769
0.350664
0.348747
0.346671
0.344851
0.342828
0.373818
0.371563
0.369621
0.36786
0.36625
0.364663
0.363121
0.361521
0.359944
0.358297
0.356694
0.355025
0.353428
0.351768
0.350212
0.348587
0.347102
0.345522
0.373833
0.371554
0.369457
0.36751
0.365722
0.364025
0.362428
0.360861
0.359354
0.357851
0.3564
0.354942
0.35354
0.352129
0.350784
0.349424
0.348148
0.346841
0.373832
0.37156
0.369425
0.36741
0.365529
0.363752
0.362086
0.360492
0.35898
0.357515
0.356115
0.354747
0.353437
0.35215
0.350918
0.349705
0.348549
0.347404
0.37383
0.371561
0.369417
0.367384
0.365468
0.363652
0.361942
0.360316
0.358778
0.357309
0.355911
0.354569
0.353288
0.352053
0.350871
0.349728
0.348634
0.347573
0.373828
0.371559
0.369412
0.367375
0.365448
0.363619
0.361889
0.360247
0.35869
0.357209
0.355802
0.354459
0.35318
0.351957
0.350789
0.349669
0.348598
0.34757
0.373827
0.371557
0.369407
0.367369
0.365437
0.363603
0.361865
0.360213
0.358646
0.357156
0.355739
0.35439
0.353107
0.351883
0.350716
0.349601
0.348536
0.34752
0.373827
0.371555
0.369403
0.367362
0.365428
0.363591
0.361848
0.360192
0.358619
0.357123
0.3557
0.354345
0.353056
0.351828
0.350656
0.34954
0.348474
0.347458
0.373826
0.371553
0.369399
0.367357
0.36542
0.363581
0.361835
0.360176
0.358599
0.3571
0.355673
0.354315
0.353021
0.351788
0.350613
0.349493
0.348424
0.347405
0.373826
0.371552
0.369396
0.367352
0.365413
0.363572
0.361824
0.360163
0.358584
0.357081
0.355652
0.35429
0.352994
0.351758
0.35058
0.349457
0.348385
0.347363
0.373825
0.371551
0.369394
0.367349
0.365408
0.363566
0.361816
0.360152
0.358571
0.357067
0.355635
0.354271
0.352972
0.351735
0.350555
0.349429
0.348355
0.347331
0.373825
0.371551
0.369393
0.367347
0.365405
0.363561
0.36181
0.360145
0.358562
0.357056
0.355623
0.354258
0.352957
0.351718
0.350536
0.349409
0.348334
0.347308
0.373825
0.371551
0.369393
0.367347
0.365404
0.36356
0.361808
0.360143
0.358559
0.357052
0.355618
0.354252
0.35295
0.35171
0.350527
0.349399
0.348323
0.347296
0.373825
0.371551
0.369394
0.367348
0.365406
0.363562
0.361811
0.360146
0.358562
0.357056
0.355622
0.354256
0.352955
0.351715
0.350532
0.349405
0.348329
0.347302
0.373826
0.371552
0.369396
0.367351
0.36541
0.363567
0.361816
0.360152
0.35857
0.357065
0.355633
0.354268
0.352969
0.35173
0.35055
0.349423
0.348349
0.347323
0.373826
0.371553
0.369398
0.367355
0.365416
0.363575
0.361828
0.360168
0.358591
0.357091
0.355664
0.354306
0.353012
0.351779
0.350602
0.34948
0.348408
0.347383
0.373826
0.371555
0.369401
0.367363
0.365432
0.363605
0.361875
0.360237
0.358681
0.357203
0.355794
0.354451
0.353167
0.351939
0.350762
0.349635
0.348552
0.347513
0.373827
0.371555
0.369413
0.367418
0.365544
0.363793
0.362138
0.360572
0.359071
0.357632
0.35624
0.354896
0.353589
0.352323
0.35109
0.349894
0.348728
0.347601
0.373819
0.371564
0.369582
0.367846
0.366223
0.364712
0.363219
0.361753
0.360266
0.358787
0.357288
0.3558
0.354306
0.352833
0.351361
0.349924
0.348495
0.34711
0.373767
0.371946
0.370916
0.369978
0.368912
0.367767
0.366326
0.364737
0.362933
0.361062
0.35906
0.357054
0.354971
0.352925
0.350845
0.348825
0.346792
0.344839
0.374093
0.3752
0.37726
0.377562
0.377091
0.375807
0.373488
0.370864
0.367802
0.364686
0.361328
0.358027
0.354602
0.351291
0.347923
0.3447
0.341472
0.338414
0.377677
0.394076
0.402944
0.402354
0.400308
0.396046
0.390665
0.385166
0.379132
0.373302
0.367221
0.361475
0.355719
0.350305
0.345128
0.340198
0.335726
0.331324
0.405777
0.438976
0.451187
0.455808
0.459109
0.462259
0.464969
0.467226
0.46922
0.47084
0.472486
0.473922
0.47554
0.477066
0.479202
0.480825
0.483663
0.485376
0.479011
0.684926
0.865145
0.990809
1.09437
1.17584
1.23938
1.28342
1.31504
1.33208
1.34321
1.34355
1.34143
1.33632
1.32786
1.31776
1.30684
1.2954
0.00231017
0.00384504
0.00554529
0.00714604
0.00854512
0.00974037
0.0107595
0.0116323
0.0123874
0.0130912
0.0137893
0.0144893
0.0152116
0.0159728
0.0167814
0.0176371
0.018537
0.0194839
0.0205062
0.0216917
0.0231743
0.0249487
0.0269496
0.02916
0.0315937
0.0342743
0.0372275
0.0404741
0.0440258
0.0478767
0.0520047
0.0563985
0.0610392
0.0658996
0.0709606
0.0762012
0.0816063
0.0871615
0.0928559
0.0986817
0.104635
0.110716
0.11693
0.12329
0.129817
0.136546
0.143526
0.150832
0.158285
0.16589
0.173645
0.181558
0.189626
0.197854
0.206244
0.214797
0.223514
0.232398
0.241447
0.250665
0.260049
0.2696
0.279316
0.289197
0.29924
0.309443
0.319803
0.330317
0.34098
0.351788
0.362736
0.373819
0.385029
0.396362
0.407809
0.419363
0.431016
0.442759
0.454583
0.466479
0.478436
0.490446
0.502495
0.514574
0.526671
0.538774
0.55087
0.562947
0.574992
0.586992
0.598931
0.610794
0.622564
0.634225
0.645756
0.657136
0.668342
0.67935
0.690137
0.700683
0.710989
0.721099
0.731041
0.740718
0.750169
0.759367
0.768311
0.776985
0.785379
0.793482
0.801284
0.808774
0.815942
0.822778
0.829274
0.835421
0.841211
0.846637
0.851691
0.856369
0.860663
0.864568
0.868079
0.871192
0.873905
0.876215
0.87812
0.879621
0.880715
0.881403
0.881674
0.881569
0.881122
0.880192
0.878821
0.877026
0.874933
0.87252
0.869657
0.86644
0.862856
0.858919
0.854636
0.850019
0.845079
0.839822
0.834257
0.828397
0.822253
0.815836
0.809158
0.802233
0.795072
0.787689
0.780098
0.772312
0.764345
0.756212
0.747926
0.739504
0.730959
0.722312
0.713587
0.704831
0.696231
0.68943
0.685291
0.681475
0.677655
0.6738
0.669912
0.665991
0.662035
0.658028
0.653938
0.649688
0.645122
0.63977
0.632745
0.607676
0.00571174
0.00889255
0.0126187
0.0156418
0.0181915
0.0204448
0.0225143
0.024479
0.0263986
0.0283193
0.0303047
0.0324237
0.0347188
0.0372097
0.0398991
0.0427799
0.0458438
0.0490884
0.0525217
0.0561592
0.0600147
0.0641017
0.0684346
0.0730277
0.0779013
0.0830802
0.0885899
0.094453
0.100685
0.107288
0.114252
0.121574
0.129249
0.137272
0.145642
0.154335
0.163342
0.172659
0.18228
0.192202
0.202424
0.212943
0.22376
0.234873
0.246285
0.257994
0.27
0.2823
0.29488
0.307747
0.320907
0.334365
0.348125
0.362191
0.37657
0.391263
0.406277
0.421614
0.437278
0.453272
0.469599
0.48626
0.503256
0.520589
0.538258
0.556262
0.5746
0.593269
0.612266
0.631586
0.651225
0.671176
0.691434
0.711989
0.732832
0.753955
0.775347
0.796995
0.818887
0.841009
0.863347
0.885886
0.908608
0.931498
0.954535
0.977702
1.00098
1.02434
1.04778
1.07125
1.09475
1.11824
1.14171
1.16511
1.18843
1.21162
1.23466
1.25751
1.28012
1.30243
1.32439
1.34592
1.36701
1.38781
1.40828
1.42841
1.44817
1.46753
1.48648
1.50499
1.52304
1.54061
1.55767
1.57421
1.59019
1.60561
1.62045
1.63468
1.64828
1.66125
1.67356
1.68521
1.69617
1.70644
1.71599
1.72484
1.73295
1.74034
1.74699
1.7529
1.75806
1.76249
1.76618
1.76912
1.77119
1.77237
1.77293
1.77294
1.77209
1.77051
1.76819
1.76516
1.76143
1.757
1.75189
1.74611
1.73969
1.73263
1.72496
1.71669
1.70784
1.69844
1.6885
1.67804
1.6671
1.65568
1.64383
1.63156
1.6189
1.60587
1.5925
1.57883
1.56488
1.5507
1.53637
1.52226
1.50851
1.49471
1.48081
1.46682
1.45277
1.43868
1.42456
1.41041
1.39621
1.38194
1.3674
1.35251
1.3358
1.3003
0.00956196
0.014527
0.0195834
0.0235273
0.0268668
0.0298836
0.0327403
0.0355478
0.038392
0.0413446
0.0444667
0.0478067
0.0513965
0.0552517
0.0593738
0.0637568
0.0683919
0.0732726
0.0783981
0.0837738
0.0894127
0.0953273
0.10153
0.108038
0.114869
0.122045
0.129588
0.137513
0.145835
0.15457
0.163733
0.173334
0.183375
0.193859
0.204779
0.216125
0.227888
0.240064
0.252646
0.265628
0.279004
0.29277
0.306918
0.321446
0.336348
0.351621
0.367261
0.383265
0.399633
0.416367
0.433472
0.450952
0.468811
0.487053
0.505682
0.524701
0.544116
0.563927
0.584139
0.604754
0.625773
0.647198
0.669028
0.691263
0.713902
0.736943
0.760382
0.784216
0.808439
0.833046
0.85803
0.883383
0.909096
0.935159
0.961559
0.988286
1.01533
1.04266
1.07028
1.09817
1.1263
1.15466
1.18323
1.21199
1.24091
1.26997
1.29915
1.32842
1.35775
1.38712
1.41651
1.44586
1.47517
1.50439
1.5335
1.56245
1.59122
1.61976
1.64805
1.67604
1.70372
1.73105
1.75802
1.78462
1.8108
1.83654
1.86181
1.88658
1.91082
1.93449
1.95757
1.98002
2.00182
2.02294
2.04336
2.06305
2.08198
2.10013
2.11748
2.134
2.14969
2.1645
2.17844
2.19149
2.20362
2.21483
2.2251
2.23444
2.24282
2.25025
2.25672
2.26223
2.26679
2.27035
2.27291
2.27434
2.2749
2.27466
2.2734
2.27118
2.26804
2.26397
2.259
2.25314
2.24641
2.23883
2.23042
2.22119
2.21119
2.20041
2.1889
2.17668
2.16378
2.15022
2.13603
2.12125
2.10591
2.09003
2.07366
2.05682
2.03955
2.02189
2.00388
1.98558
1.96706
1.94854
1.93011
1.91161
1.89299
1.87428
1.85551
1.8367
1.8179
1.79912
1.78039
1.76172
1.74305
1.7244
1.70436
1.67301
0.012894
0.0204352
0.026772
0.0315636
0.0356063
0.0392801
0.0427941
0.0462856
0.0498569
0.0535883
0.0575425
0.0617647
0.0662823
0.0711068
0.0762369
0.0816638
0.0873769
0.0933679
0.0996339
0.106178
0.113009
0.12014
0.127589
0.135381
0.143541
0.152097
0.161077
0.170504
0.180399
0.19078
0.201657
0.213034
0.224913
0.237285
0.250142
0.263482
0.277299
0.291585
0.306334
0.321536
0.337183
0.35327
0.36979
0.386739
0.404111
0.421904
0.440116
0.458746
0.477794
0.497266
0.517164
0.537494
0.558259
0.579464
0.601114
0.623213
0.645765
0.668774
0.692242
0.716174
0.740569
0.765431
0.790759
0.816553
0.842812
0.869534
0.896716
0.924354
0.952443
0.980976
1.00995
1.03934
1.06916
1.09938
1.13
1.161
1.19236
1.22408
1.25612
1.28848
1.32113
1.35404
1.38721
1.4206
1.45418
1.48793
1.52182
1.55583
1.58991
1.62404
1.65819
1.69232
1.7264
1.76039
1.79425
1.82795
1.86146
1.89473
1.92773
1.96043
1.99279
2.02478
2.05636
2.08749
2.11814
2.14827
2.17785
2.20682
2.23516
2.26284
2.2898
2.31603
2.34149
2.36613
2.38994
2.41288
2.43492
2.45603
2.4762
2.49538
2.51356
2.53072
2.54684
2.56189
2.57587
2.58875
2.60052
2.61118
2.62072
2.62913
2.6364
2.64254
2.64754
2.65138
2.65404
2.6554
2.65578
2.65509
2.65325
2.6503
2.64625
2.64112
2.63493
2.62771
2.61946
2.61023
2.60002
2.58886
2.5768
2.56384
2.55002
2.53538
2.51994
2.50374
2.48682
2.46921
2.45094
2.43206
2.41261
2.39262
2.37213
2.3512
2.32986
2.30818
2.28625
2.2642
2.2421
2.21991
2.1976
2.1752
2.15275
2.13029
2.10787
2.08554
2.06337
2.04142
2.01972
1.99839
1.9762
1.94699
0.0155291
0.0262844
0.0339613
0.0396373
0.0443967
0.048709
0.0528289
0.0569194
0.0610978
0.0654521
0.0700481
0.074931
0.0801271
0.0856464
0.0914874
0.0976416
0.1041
0.110855
0.117908
0.125266
0.132941
0.140955
0.149333
0.158103
0.167295
0.176939
0.18706
0.197681
0.208818
0.220485
0.232687
0.245427
0.258702
0.272509
0.286842
0.301697
0.317066
0.332943
0.349319
0.366188
0.383543
0.401378
0.419689
0.438471
0.457723
0.477443
0.49763
0.518287
0.539416
0.561023
0.583111
0.605686
0.628752
0.652316
0.676383
0.700958
0.726045
0.75165
0.777777
0.804428
0.831608
0.859318
0.88756
0.916334
0.94564
0.975476
1.00584
1.03673
1.06814
1.10006
1.13249
1.16541
1.19882
1.2327
1.26705
1.30184
1.33706
1.37269
1.40872
1.44511
1.48185
1.51891
1.55627
1.59389
1.63176
1.66983
1.70808
1.74647
1.78496
1.82353
1.86213
1.90072
1.93927
1.97773
2.01607
2.05424
2.0922
2.12991
2.16733
2.20442
2.24114
2.27743
2.31325
2.34857
2.38333
2.4175
2.45102
2.48385
2.51596
2.5473
2.57783
2.6075
2.63628
2.66413
2.69102
2.7169
2.74175
2.76554
2.78822
2.80979
2.8302
2.84943
2.86747
2.88428
2.89986
2.91418
2.92724
2.93901
2.9495
2.9587
2.96659
2.97319
2.97849
2.98247
2.98509
2.98629
2.98636
2.98516
2.98267
2.97892
2.97393
2.96772
2.96031
2.95173
2.94199
2.93114
2.91919
2.90617
2.89213
2.87709
2.86108
2.84415
2.82633
2.80766
2.78817
2.76792
2.74693
2.72527
2.70296
2.68006
2.65661
2.63266
2.60826
2.58349
2.55842
2.53316
2.50777
2.48225
2.45661
2.43088
2.40512
2.37937
2.35372
2.32823
2.303
2.27814
2.25378
2.23004
2.20589
2.17703
0.0175606
0.0318044
0.040889
0.0474779
0.0529578
0.0578884
0.0625679
0.0671834
0.0718658
0.0767117
0.0817917
0.087154
0.0928278
0.0988266
0.105153
0.111803
0.118774
0.126065
0.133682
0.141638
0.149951
0.158647
0.167752
0.177295
0.187306
0.19781
0.208829
0.220382
0.232481
0.245135
0.25835
0.272125
0.28646
0.301352
0.316797
0.332791
0.349329
0.366404
0.384011
0.402147
0.420806
0.439986
0.459685
0.4799
0.500633
0.521884
0.543656
0.565951
0.588773
0.612129
0.636022
0.660461
0.685451
0.710998
0.73711
0.763793
0.791054
0.818897
0.847329
0.876355
0.905979
0.936204
0.967033
0.998468
1.03051
1.06316
1.09641
1.13027
1.16472
1.19976
1.23539
1.2716
1.30837
1.34569
1.38355
1.42193
1.46081
1.50018
1.54001
1.58027
1.62095
1.66202
1.70343
1.74517
1.7872
1.82949
1.87199
1.91467
1.95749
2.00041
2.04338
2.08637
2.12932
2.17219
2.21494
2.25752
2.29987
2.34195
2.38371
2.42511
2.46608
2.50657
2.54654
2.58594
2.62471
2.6628
2.70017
2.73676
2.77253
2.80742
2.84139
2.8744
2.9064
2.93734
2.96719
2.99591
3.02345
3.04979
3.07488
3.09871
3.12123
3.14242
3.16226
3.18072
3.19778
3.21343
3.22765
3.24043
3.25176
3.26163
3.27005
3.27701
3.2825
3.28653
3.28902
3.29
3.28967
3.28789
3.2847
3.2801
3.27411
3.26678
3.25811
3.24814
3.2369
3.22441
3.21072
3.19585
3.17985
3.16274
3.14458
3.1254
3.10524
3.08415
3.06217
3.03935
3.01573
2.99136
2.9663
2.94059
2.91429
2.88744
2.86011
2.83237
2.80428
2.77595
2.74744
2.71876
2.68997
2.66109
2.63219
2.60334
2.57463
2.54615
2.51804
2.49044
2.46352
2.43742
2.41122
2.38155
0.0190949
0.0368854
0.0473273
0.0548071
0.0609827
0.0664955
0.0716825
0.0767524
0.0818493
0.0870788
0.0925182
0.0982217
0.104225
0.110548
0.117202
0.124191
0.131519
0.139193
0.147225
0.155631
0.164433
0.173655
0.183324
0.193467
0.204108
0.21527
0.22697
0.239223
0.252039
0.265426
0.279388
0.293927
0.309043
0.324736
0.341002
0.35784
0.375248
0.393223
0.411762
0.430864
0.450529
0.470755
0.491543
0.512896
0.534814
0.557302
0.580364
0.604005
0.628231
0.653048
0.678463
0.704486
0.731122
0.758382
0.786273
0.814803
0.843981
0.873814
0.90431
0.935474
0.967313
0.999834
1.03304
1.06693
1.10152
1.13679
1.17276
1.20941
1.24675
1.28478
1.32347
1.36283
1.40284
1.44349
1.48477
1.52665
1.56912
1.61216
1.65573
1.69982
1.74439
1.78942
1.83487
1.8807
1.92688
1.97336
2.02011
2.06709
2.11423
2.16151
2.20887
2.25626
2.30362
2.35091
2.39808
2.44506
2.4918
2.53825
2.58434
2.63003
2.67524
2.71993
2.76402
2.80747
2.85023
2.89222
2.9334
2.97371
3.01309
3.0515
3.08887
3.12516
3.16032
3.1943
3.22705
3.25854
3.28871
3.31753
3.34496
3.37097
3.39552
3.41859
3.44015
3.46017
3.47864
3.49553
3.51083
3.52453
3.53661
3.54708
3.55593
3.56316
3.56877
3.57277
3.57506
3.57576
3.57494
3.57253
3.56856
3.56304
3.55602
3.5475
3.53753
3.52614
3.51335
3.49921
3.48375
3.46702
3.44905
3.42988
3.40957
3.38815
3.36567
3.34218
3.31774
3.29239
3.26618
3.23917
3.21141
3.18295
3.15386
3.12419
3.09399
3.06335
3.03234
3.00103
2.9695
2.93778
2.90594
2.87402
2.8421
2.81025
2.77859
2.74722
2.71631
2.68603
2.65657
2.62807
2.59967
2.5684
0.0203665
0.0414114
0.053097
0.0614004
0.0682141
0.0742523
0.0798861
0.085343
0.0907791
0.0963085
0.102016
0.107963
0.114194
0.120738
0.127613
0.134834
0.142413
0.150361
0.158696
0.167435
0.1766
0.186215
0.196303
0.206887
0.217988
0.229624
0.241811
0.254562
0.267884
0.281787
0.296274
0.31135
0.327015
0.343273
0.360124
0.377568
0.395607
0.414241
0.433471
0.453299
0.473727
0.494759
0.516398
0.538647
0.561513
0.585001
0.609118
0.633871
0.659269
0.68532
0.712034
0.73942
0.767489
0.796251
0.825716
0.855896
0.8868
0.918438
0.950819
0.983953
1.01785
1.05251
1.08795
1.12416
1.16116
1.19894
1.23752
1.27687
1.31701
1.35793
1.39962
1.44207
1.48527
1.5292
1.57386
1.61921
1.66524
1.71193
1.75924
1.80715
1.85562
1.90462
1.95411
2.00405
2.05439
2.1051
2.15612
2.20741
2.25891
2.31057
2.36234
2.41415
2.46595
2.51768
2.56927
2.62067
2.67181
2.72263
2.77306
2.82303
2.87248
2.92134
2.96954
3.01703
3.06374
3.1096
3.15456
3.19854
3.2415
3.28337
3.3241
3.36361
3.40187
3.43882
3.47441
3.50859
3.54132
3.57254
3.60223
3.63034
3.65685
3.68171
3.7049
3.72639
3.74617
3.76421
3.78049
3.79502
3.80777
3.81874
3.82794
3.83535
3.841
3.84488
3.8469
3.84724
3.84585
3.84274
3.83793
3.83145
3.82332
3.81358
3.80226
3.7894
3.77504
3.75921
3.74197
3.72335
3.7034
3.68217
3.65971
3.63606
3.61129
3.58543
3.55856
3.53071
3.50195
3.47234
3.44194
3.41079
3.37897
3.34654
3.31355
3.28009
3.24621
3.21201
3.17755
3.1429
3.1081
3.07324
3.03838
3.00363
2.9691
2.93493
2.90127
2.86835
2.83634
2.80537
2.77466
2.74161
0.0229098
0.0455425
0.0581781
0.0671479
0.0744903
0.0809693
0.0869776
0.0927552
0.0984664
0.104232
0.110143
0.116268
0.12266
0.129355
0.136382
0.143761
0.151511
0.15965
0.168195
0.177167
0.186585
0.19647
0.206844
0.217725
0.229133
0.241082
0.253588
0.26666
0.280308
0.294541
0.309365
0.324786
0.340808
0.357437
0.374675
0.392529
0.411001
0.430095
0.449818
0.470173
0.491167
0.512805
0.535095
0.558044
0.581661
0.605955
0.630934
0.65661
0.682993
0.710094
0.737926
0.766501
0.795833
0.825933
0.856816
0.888494
0.92098
0.954286
0.988424
1.02341
1.05924
1.09594
1.13351
1.17196
1.2113
1.25152
1.29263
1.33464
1.37753
1.42131
1.46596
1.51148
1.55785
1.60506
1.65309
1.70191
1.75151
1.80186
1.85292
1.90467
1.95705
2.01005
2.0636
2.11767
2.17221
2.22716
2.28248
2.3381
2.39397
2.45003
2.50621
2.56245
2.61868
2.67484
2.73086
2.78666
2.84217
2.89733
2.95205
3.00627
3.0599
3.11289
3.16515
3.21661
3.2672
3.31686
3.36552
3.41311
3.45955
3.50479
3.54877
3.59141
3.63267
3.67249
3.7108
3.74756
3.78272
3.81624
3.84807
3.87816
3.90649
3.93303
3.95773
3.98057
4.00154
4.02061
4.03777
4.05301
4.06631
4.07768
4.08712
4.09462
4.1002
4.10386
4.10556
4.10542
4.1034
4.09952
4.0938
4.08628
4.077
4.06598
4.05328
4.03892
4.02296
4.00543
3.98639
3.96588
3.94396
3.92068
3.89608
3.87023
3.84319
3.815
3.78574
3.75545
3.72421
3.69206
3.65908
3.62532
3.59086
3.55574
3.52005
3.48384
3.4472
3.41021
3.37293
3.33544
3.2978
3.26009
3.22241
3.18485
3.14754
3.11063
3.07429
3.03875
3.00419
2.97073
2.93761
2.90271
0.0258318
0.0490911
0.062443
0.0719346
0.0796968
0.0865298
0.0928402
0.0988763
0.104807
0.110759
0.116826
0.123085
0.129592
0.136392
0.143519
0.151001
0.158861
0.16712
0.175797
0.184911
0.194482
0.204528
0.215069
0.22612
0.237699
0.249821
0.262498
0.275741
0.289563
0.303971
0.318974
0.334581
0.3508
0.367638
0.385102
0.403201
0.421942
0.441334
0.461384
0.482102
0.503497
0.525579
0.548359
0.571848
0.596058
0.621
0.646688
0.673135
0.700356
0.728365
0.757178
0.78681
0.817277
0.848597
0.880783
0.913854
0.947823
0.982707
1.01852
1.05527
1.09298
1.13166
1.17132
1.21196
1.2536
1.29623
1.33987
1.38451
1.43014
1.47678
1.5244
1.573
1.62255
1.67306
1.72448
1.7768
1.83
1.88403
1.93887
1.99447
2.0508
2.1078
2.16544
2.22365
2.28238
2.34158
2.40119
2.46113
2.52135
2.58178
2.64234
2.70297
2.76359
2.82412
2.88449
2.94461
3.00441
3.06382
3.12274
3.18109
3.2388
3.29579
3.35197
3.40727
3.46162
3.51493
3.56714
3.61816
3.66793
3.71638
3.76344
3.80904
3.85313
3.89563
3.93649
3.97566
4.01308
4.04871
4.0825
4.11441
4.1444
4.17243
4.19848
4.22251
4.24451
4.26446
4.28234
4.29814
4.31186
4.32349
4.33303
4.34049
4.34589
4.34923
4.35052
4.34981
4.34707
4.34234
4.33564
4.32703
4.31654
4.30421
4.29009
4.27421
4.25663
4.23739
4.21656
4.19417
4.1703
4.14499
4.1183
4.0903
4.06104
4.03059
3.99901
3.96637
3.93272
3.89813
3.86267
3.8264
3.78939
3.75171
3.71342
3.67459
3.63531
3.59564
3.55568
3.51548
3.47513
3.43471
3.39432
3.35407
3.31409
3.27454
3.23561
3.1975
3.16041
3.12445
3.08889
3.05193
0.0285379
0.0519271
0.0658097
0.0756994
0.0837835
0.0908898
0.0974343
0.103671
0.109773
0.115868
0.122055
0.128411
0.134999
0.141868
0.149056
0.156596
0.164513
0.17283
0.181567
0.190744
0.20038
0.210493
0.221099
0.232213
0.243852
0.256029
0.268757
0.282049
0.295915
0.310369
0.325421
0.341083
0.357365
0.374279
0.391836
0.410047
0.428924
0.44848
0.468727
0.489678
0.511346
0.533745
0.55689
0.580795
0.605477
0.630952
0.657237
0.68435
0.712308
0.741128
0.770831
0.801437
0.832964
0.865433
0.898862
0.933272
0.968681
1.00511
1.04256
1.08107
1.12064
1.1613
1.20304
1.24588
1.28984
1.33491
1.38109
1.4284
1.47682
1.52635
1.57699
1.6287
1.68149
1.73533
1.79019
1.84605
1.90287
1.96062
2.01925
2.07873
2.139
2.20002
2.26172
2.32406
2.38696
2.45037
2.5142
2.57841
2.6429
2.70761
2.77245
2.83735
2.90222
2.96699
3.03155
3.09584
3.15976
3.22323
3.28615
3.34844
3.41001
3.47078
3.53066
3.58957
3.64743
3.70414
3.75965
3.81386
3.8667
3.9181
3.96798
4.01627
4.06292
4.10785
4.151
4.19232
4.23175
4.26923
4.30474
4.33821
4.36962
4.39892
4.42609
4.45109
4.47392
4.49454
4.51294
4.52912
4.54307
4.5548
4.56429
4.57158
4.57666
4.57956
4.5803
4.57894
4.57539
4.56971
4.56198
4.55222
4.54048
4.5268
4.51123
4.49382
4.47463
4.4537
4.43109
4.40687
4.38109
4.35381
4.3251
4.29502
4.26364
4.23102
4.19723
4.16234
4.1264
4.0895
4.05169
4.01305
3.97365
3.93354
3.89281
3.85153
3.80976
3.76759
3.7251
3.68236
3.63946
3.5965
3.55356
3.51077
3.46826
3.4262
3.38478
3.3442
3.30464
3.26622
3.22825
3.18918
0.0309523
0.0540502
0.0682862
0.078457
0.08677
0.0940719
0.100785
0.107167
0.113393
0.119591
0.125862
0.132285
0.138924
0.145829
0.153044
0.160601
0.168529
0.176854
0.185595
0.194772
0.204402
0.214502
0.225088
0.236174
0.247776
0.259908
0.272583
0.285817
0.299623
0.314016
0.329011
0.344621
0.360863
0.377749
0.395297
0.413521
0.432438
0.452064
0.472417
0.493513
0.51537
0.538007
0.56144
0.585689
0.610774
0.636717
0.663541
0.691267
0.719915
0.74951
0.780075
0.811633
0.844209
0.877826
0.912507
0.948273
0.985146
1.02315
1.06229
1.1026
1.1441
1.18679
1.23069
1.27581
1.32217
1.36975
1.41858
1.46864
1.51993
1.57245
1.62617
1.68109
1.73718
1.79442
1.85277
1.91221
1.97269
2.03417
2.09661
2.15996
2.22416
2.28915
2.35487
2.42125
2.48823
2.55573
2.62368
2.69199
2.76059
2.8294
2.89832
2.96727
3.03616
3.10491
3.17341
3.24158
3.30932
3.37654
3.44314
3.50904
3.57414
3.63834
3.70157
3.76372
3.82472
3.88447
3.9429
3.99992
4.05545
4.10942
4.16175
4.21237
4.2612
4.30819
4.35327
4.39638
4.43747
4.47648
4.51336
4.54808
4.58059
4.61086
4.63885
4.66455
4.68793
4.70897
4.72766
4.74399
4.75796
4.76958
4.77885
4.78578
4.79039
4.79271
4.79277
4.79067
4.78619
4.7795
4.77066
4.7597
4.74668
4.73163
4.71462
4.69569
4.6749
4.65232
4.628
4.602
4.57439
4.54524
4.51461
4.48257
4.44919
4.41453
4.37868
4.34169
4.30363
4.26458
4.22461
4.18378
4.14217
4.09984
4.05687
4.01332
3.96927
3.92481
3.88
3.83494
3.7897
3.74439
3.6991
3.65396
3.60911
3.5647
3.52094
3.47801
3.4361
3.39531
3.35502
3.3139
0.0330555
0.0555059
0.0699312
0.0802732
0.0887257
0.0961471
0.102964
0.109436
0.115738
0.121999
0.128319
0.134777
0.141438
0.148353
0.155566
0.16311
0.171014
0.179302
0.187995
0.197112
0.206671
0.216688
0.227181
0.238164
0.249652
0.261661
0.274203
0.287298
0.300964
0.315219
0.330081
0.345567
0.361698
0.378492
0.39597
0.414151
0.433057
0.452708
0.473127
0.494337
0.516359
0.539215
0.562927
0.587514
0.613
0.639416
0.666789
0.695148
0.724519
0.754933
0.786416
0.818997
0.852703
0.887562
0.923597
0.960834
0.999295
1.039
1.07998
1.12224
1.16581
1.2107
1.25692
1.30449
1.3534
1.40367
1.4553
1.50827
1.56258
1.61821
1.67515
1.73338
1.79287
1.85358
1.91548
1.97854
2.0427
2.10791
2.17413
2.24129
2.30933
2.37819
2.44779
2.51806
2.58892
2.6603
2.73211
2.80427
2.87668
2.94927
3.02193
3.09457
3.1671
3.23941
3.31143
3.38304
3.45415
3.52465
3.59446
3.66348
3.7316
3.79873
3.86479
3.92967
3.99329
4.05555
4.11639
4.1757
4.23341
4.28943
4.3437
4.39614
4.44667
4.49524
4.54177
4.58621
4.6285
4.66859
4.70643
4.74198
4.77521
4.80606
4.83453
4.86057
4.88418
4.90533
4.92401
4.94023
4.95397
4.96525
4.97407
4.98046
4.98443
4.98601
4.98532
4.98229
4.97679
4.96903
4.95903
4.94684
4.93251
4.9161
4.89766
4.87725
4.85493
4.83076
4.80481
4.77714
4.74782
4.71693
4.68452
4.65067
4.61546
4.57895
4.54122
4.50234
4.46237
4.4214
4.37949
4.33671
4.29313
4.24882
4.20385
4.1583
4.11223
4.06572
4.01887
3.97174
3.92442
3.87701
3.82962
3.78236
3.73539
3.68885
3.64294
3.59785
3.55373
3.51073
3.46826
3.42523
0.0348537
0.0563636
0.0708281
0.0812389
0.0897462
0.0972133
0.10407
0.110575
0.116906
0.12319
0.129526
0.135993
0.142652
0.149553
0.156735
0.164231
0.172072
0.18028
0.188878
0.197885
0.20732
0.2172
0.227545
0.238371
0.249701
0.26156
0.273954
0.286901
0.30042
0.31453
0.329254
0.344614
0.360633
0.377334
0.394743
0.412884
0.431783
0.451464
0.471959
0.493296
0.515504
0.538606
0.562631
0.587609
0.613575
0.640563
0.668604
0.697731
0.727976
0.759375
0.79196
0.825765
0.860819
0.89715
0.934785
0.973749
1.01407
1.05576
1.09884
1.14334
1.18927
1.23664
1.28547
1.33576
1.38751
1.44071
1.49538
1.55148
1.60901
1.66795
1.72827
1.78993
1.85291
1.91717
1.98266
2.04933
2.11713
2.186
2.25587
2.32669
2.39838
2.47087
2.54408
2.61792
2.69233
2.76721
2.84247
2.91802
2.99377
3.06962
3.14548
3.22124
3.29682
3.37211
3.44701
3.52142
3.59523
3.66836
3.74069
3.81213
3.88258
3.95194
4.02012
4.08703
4.15257
4.21666
4.2792
4.34012
4.39932
4.45674
4.5123
4.56591
4.61752
4.66704
4.71443
4.75962
4.80256
4.84319
4.88147
4.91736
4.95082
4.98181
5.01031
5.0363
5.05975
5.08066
5.099
5.11479
5.12802
5.1387
5.14685
5.15248
5.15562
5.15632
5.15476
5.15066
5.14408
5.13517
5.12397
5.11054
5.09492
5.07718
5.05737
5.03554
5.01178
4.98614
4.95868
4.92949
4.89863
4.86616
4.83217
4.79673
4.75991
4.72178
4.68243
4.64191
4.6003
4.55768
4.51411
4.46967
4.42442
4.37844
4.33178
4.28453
4.23676
4.18853
4.13993
4.09105
4.04196
3.99276
3.94356
3.89448
3.84566
3.79726
3.74945
3.70242
3.65633
3.61132
3.56685
3.52212
0.036352
0.0566693
0.0710396
0.0814325
0.089922
0.0973695
0.104208
0.110698
0.117014
0.123283
0.1296
0.136042
0.14267
0.149534
0.15667
0.16411
0.171881
0.180007
0.188509
0.197408
0.206723
0.216473
0.226675
0.237349
0.248512
0.260177
0.272364
0.285104
0.298424
0.31235
0.326909
0.34213
0.358043
0.37468
0.392071
0.410248
0.429243
0.449089
0.469819
0.491466
0.514074
0.537667
0.562271
0.587908
0.614618
0.642453
0.671456
0.701667
0.733125
0.765867
0.799935
0.835373
0.872203
0.910452
0.950147
0.991308
1.03396
1.07811
1.12378
1.17099
1.21975
1.27005
1.32192
1.37534
1.43031
1.48681
1.54483
1.60435
1.66535
1.72778
1.79162
1.85682
1.92334
1.99113
2.06014
2.1303
2.20155
2.27384
2.34708
2.42122
2.49616
2.57183
2.64814
2.72502
2.80238
2.88012
2.95815
3.03638
3.11471
3.19305
3.2713
3.34936
3.42713
3.50451
3.5814
3.6577
3.73331
3.80813
3.88205
3.95499
4.02684
4.0975
4.16689
4.23491
4.30146
4.36647
4.42985
4.4915
4.55136
4.60934
4.66537
4.71938
4.77128
4.82103
4.86855
4.9138
4.95672
4.99725
5.03537
5.07101
5.10415
5.13476
5.16281
5.18828
5.21115
5.23141
5.24905
5.26408
5.27649
5.28631
5.29353
5.29819
5.30033
5.30004
5.29747
5.29217
5.28445
5.27436
5.26197
5.24731
5.23045
5.21144
5.19035
5.16723
5.14217
5.11521
5.08644
5.05593
5.02374
4.98995
4.95463
4.91786
4.87972
4.84027
4.79959
4.75776
4.71485
4.67092
4.62605
4.5803
4.53374
4.48645
4.43848
4.38991
4.3408
4.29123
4.24128
4.19101
4.14052
4.0899
4.03925
3.98869
3.93835
3.8884
3.83899
3.79031
3.74252
3.69576
3.64956
3.6034
0.037675
0.0566307
0.0708465
0.0811611
0.0895768
0.0969549
0.10373
0.110161
0.116423
0.122641
0.128909
0.1353
0.14187
0.148662
0.155712
0.163051
0.170704
0.178693
0.18704
0.19577
0.204903
0.214461
0.224467
0.234942
0.245912
0.257404
0.269449
0.282074
0.295307
0.309182
0.32373
0.338988
0.354991
0.371781
0.389404
0.407899
0.427298
0.447639
0.46896
0.491289
0.514636
0.539058
0.564624
0.591401
0.619442
0.648779
0.679453
0.711505
0.744971
0.779889
0.816289
0.85419
0.89363
0.934641
0.977257
1.02149
1.06733
1.11479
1.16388
1.2146
1.26694
1.32091
1.37648
1.43365
1.49239
1.55267
1.61447
1.67774
1.74245
1.80855
1.876
1.94474
2.01471
2.08586
2.15813
2.23145
2.30574
2.38095
2.45699
2.53379
2.61127
2.68934
2.76793
2.84694
2.9263
3.0059
3.08566
3.1655
3.2453
3.32499
3.40447
3.48363
3.56238
3.64063
3.71829
3.79524
3.8714
3.94667
4.02096
4.09416
4.16619
4.23695
4.30636
4.37432
4.44074
4.50554
4.56863
4.62995
4.68941
4.74692
4.80243
4.85585
4.90713
4.95618
5.00298
5.04745
5.08955
5.12923
5.16644
5.20115
5.23333
5.26294
5.28996
5.31437
5.33616
5.35532
5.37184
5.38572
5.39697
5.4056
5.41163
5.41507
5.41599
5.41466
5.41078
5.40425
5.39532
5.38403
5.37043
5.35457
5.33653
5.31634
5.29409
5.26982
5.24362
5.21554
5.18567
5.15406
5.1208
5.08596
5.04961
5.01182
4.97268
4.93224
4.8906
4.84782
4.80397
4.75911
4.71332
4.66667
4.61921
4.57101
4.52214
4.47266
4.42264
4.37214
4.32123
4.26999
4.2185
4.16685
4.11513
4.06347
4.01199
3.96083
3.91017
3.86016
3.81097
3.76276
3.71509
3.66781
0.038874
0.0564055
0.0703093
0.0804355
0.0886842
0.0959082
0.102543
0.108847
0.114996
0.121111
0.127282
0.133575
0.140044
0.146729
0.153666
0.160884
0.168415
0.176286
0.184519
0.193138
0.202167
0.211633
0.221563
0.231989
0.24294
0.254449
0.266552
0.279289
0.292707
0.306846
0.321742
0.337437
0.353975
0.371395