/*--------------------------------*- C++ -*----------------------------------*\
| =========                 |                                                 |
| \\      /  F ield         | OpenFOAM: The Open Source CFD Toolbox           |
|  \\    /   O peration     | Version:  2212                                  |
|   \\  /    A nd           | Website:  www.openfoam.com                      |
|    \\/     M anipulation  |                                                 |
\*---------------------------------------------------------------------------*/
FoamFile
{
    version     2.0;
    format      ascii;
    arch        "LSB;label=32;scalar=64";
    class       volScalarField;
    location    "282";
    object      nut;
}
// * * * * * * * * * * * * * * * * * * * * * * * * * * * * * * * * * * * * * //

dimensions      [0 2 -1 0 0 0 0];

internalField   nonuniform List<scalar> 
12225
(
2.70743e-05
3.55747e-05
4.05232e-05
4.31924e-05
4.44515e-05
4.49643e-05
4.49108e-05
4.48716e-05
4.4503e-05
4.41848e-05
4.38513e-05
4.35233e-05
4.32272e-05
4.29455e-05
4.27118e-05
4.24746e-05
4.23154e-05
4.20882e-05
0.000212994
8.46394e-05
5.59092e-05
4.40563e-05
3.83768e-05
3.53546e-05
3.38475e-05
3.30808e-05
3.28531e-05
3.28757e-05
3.32144e-05
3.3605e-05
3.42287e-05
3.48004e-05
3.55845e-05
3.62297e-05
3.71299e-05
3.76572e-05
0.000656999
0.000306527
0.000194017
0.000142101
0.000113226
9.44966e-05
8.20243e-05
7.33149e-05
6.67998e-05
6.19626e-05
5.80396e-05
5.51143e-05
5.25287e-05
5.07166e-05
4.88953e-05
4.78515e-05
4.63558e-05
4.53842e-05
0.000863008
0.000609451
0.000451631
0.000350838
0.000289305
0.000246494
0.000216684
0.000194293
0.000177764
0.000164289
0.000154047
0.000145062
0.0001382
0.000131726
0.000126852
0.00012205
0.000118084
0.000113618
0.000877431
0.000776412
0.000690872
0.000591923
0.00051733
0.000458089
0.000413482
0.000377227
0.000349674
0.000325962
0.000307903
0.000291296
0.000278926
0.000266588
0.000257871
0.000248256
0.000242168
0.000233324
0.000858411
0.000835294
0.00080729
0.000753093
0.000699394
0.000648246
0.000604836
0.000565864
0.000534206
0.000505359
0.000482494
0.000460721
0.000444083
0.000427083
0.000414958
0.000401128
0.000392651
0.000379901
0.000854258
0.000849543
0.000840713
0.000823039
0.000798602
0.000768465
0.000739181
0.000709552
0.000683357
0.000657723
0.000636206
0.000614797
0.000597703
0.000579788
0.000566535
0.000551175
0.000541546
0.000526625
0.00085239
0.000851591
0.000849792
0.000844527
0.000835946
0.00082452
0.000810178
0.000793464
0.000777243
0.000760013
0.000744559
0.000728288
0.000714567
0.000699763
0.00068818
0.00067472
0.000665644
0.000652143
0.000851903
0.00085148
0.000851079
0.000849881
0.000847545
0.000843616
0.000838592
0.000831271
0.000823646
0.00081499
0.000806297
0.000796549
0.000787795
0.000778065
0.000769851
0.000760463
0.000753297
0.000743483
0.000851815
0.000851373
0.000851073
0.000850609
0.000850034
0.000848808
0.000847331
0.000844857
0.000841997
0.000838303
0.000834501
0.000829861
0.000825422
0.00082027
0.000815571
0.000810259
0.0008056
0.000799745
0.000851799
0.000851357
0.000851021
0.000850623
0.000850325
0.000849824
0.000849338
0.000848517
0.000847604
0.00084626
0.000844872
0.000843007
0.0008412
0.000838881
0.000836817
0.000834101
0.000832042
0.000828842
0.000851792
0.000851359
0.000851001
0.000850611
0.000850306
0.000849938
0.000849631
0.00084921
0.000848815
0.000848233
0.000847676
0.000846875
0.000846137
0.000845092
0.000844212
0.000842914
0.000841974
0.000840423
0.000851787
0.000851362
0.000850989
0.000850607
0.00085028
0.000849936
0.000849644
0.000849319
0.00084904
0.000848697
0.000848398
0.000848001
0.000847658
0.000847179
0.000846786
0.00084621
0.000845771
0.0008451
0.000851783
0.000851364
0.00085098
0.000850604
0.000850263
0.000849925
0.000849622
0.000849315
0.000849043
0.000848758
0.000848506
0.000848232
0.00084799
0.000847714
0.000847472
0.000847185
0.000846936
0.000846635
0.000851781
0.000851364
0.000850974
0.0008506
0.000850251
0.000849916
0.000849602
0.0008493
0.000849018
0.000848744
0.000848488
0.000848238
0.000848004
0.000847773
0.000847556
0.00084734
0.000847136
0.000846932
0.00085178
0.000851363
0.00085097
0.000850596
0.000850242
0.000849906
0.000849588
0.000849285
0.000848998
0.000848724
0.000848463
0.000848213
0.000847976
0.000847748
0.000847531
0.000847322
0.000847123
0.000846931
0.000851779
0.000851362
0.000850967
0.000850592
0.000850236
0.000849899
0.000849578
0.000849273
0.000848984
0.000848707
0.000848444
0.000848192
0.000847952
0.000847722
0.000847502
0.000847292
0.00084709
0.000846898
0.000851779
0.000851362
0.000850965
0.000850589
0.000850233
0.000849894
0.000849572
0.000849265
0.000848974
0.000848695
0.00084843
0.000848177
0.000847934
0.000847703
0.000847481
0.000847269
0.000847066
0.000846871
0.000851779
0.000851362
0.000850965
0.000850589
0.000850232
0.000849892
0.00084957
0.000849262
0.00084897
0.000848691
0.000848424
0.00084817
0.000847927
0.000847694
0.000847471
0.000847258
0.000847054
0.000846858
0.000851779
0.000851362
0.000850966
0.000850591
0.000850234
0.000849895
0.000849573
0.000849266
0.000848973
0.000848695
0.000848428
0.000848174
0.00084793
0.000847697
0.000847473
0.000847259
0.000847052
0.000846855
0.000851779
0.000851364
0.000850968
0.000850595
0.000850238
0.000849902
0.000849578
0.000849274
0.000848979
0.0008487
0.000848427
0.000848168
0.00084791
0.000847667
0.00084742
0.000847187
0.000846947
0.000846723
0.000851778
0.000851367
0.000850969
0.000850603
0.000850243
0.00084991
0.000849573
0.000849254
0.000848916
0.000848587
0.000848223
0.000847865
0.000847456
0.00084706
0.000846595
0.00084616
0.000845637
0.00084517
0.000851779
0.000851381
0.000850972
0.000850624
0.000850209
0.000849789
0.000849233
0.000848616
0.000847803
0.000846896
0.000845768
0.00084456
0.000843125
0.000841664
0.000839958
0.000838332
0.000836386
0.000834699
0.000851855
0.000851467
0.000850932
0.000850394
0.000849126
0.000847458
0.000844947
0.00084194
0.000838072
0.000833847
0.00082896
0.000823929
0.000818447
0.000813019
0.000807264
0.000801724
0.00079584
0.000790777
0.000852785
0.00085138
0.000849189
0.000845095
0.000836884
0.000827817
0.000815748
0.000802823
0.000788373
0.000774368
0.000759663
0.000746077
0.000732118
0.000719683
0.000706819
0.000695842
0.000684087
0.000674695
0.000858211
0.000842299
0.000828961
0.000803015
0.000769257
0.000735475
0.000700803
0.000669705
0.000639498
0.000613594
0.000588613
0.000567745
0.000547316
0.000530659
0.000513866
0.00050061
0.000486568
0.000476067
0.000864337
0.000785613
0.000712709
0.000628304
0.00055828
0.00050309
0.000455748
0.000418868
0.000386625
0.000361594
0.000338764
0.000321228
0.000304415
0.000291772
0.000278912
0.000269549
0.00025937
0.000252304
0.000775957
0.000540063
0.000397942
0.000312965
0.000258158
0.000219635
0.000190506
0.000169565
0.000152553
0.000139992
0.000129095
0.000121017
0.000113528
0.000108076
0.000102634
9.88117e-05
9.46878e-05
9.19152e-05
0.000323583
0.00016484
0.000111417
8.60758e-05
7.08266e-05
6.13546e-05
5.50184e-05
5.08856e-05
4.79532e-05
4.60098e-05
4.45906e-05
4.36882e-05
4.30394e-05
4.2695e-05
4.24553e-05
4.24393e-05
4.24359e-05
4.26226e-05
3.26574e-05
3.90518e-05
4.3892e-05
4.69715e-05
4.93654e-05
5.11699e-05
5.25343e-05
5.34595e-05
5.41141e-05
5.44634e-05
5.46907e-05
5.46974e-05
5.46544e-05
5.45501e-05
5.43772e-05
5.41699e-05
5.3945e-05
5.37084e-05
2.83341e-06
7.80759e-06
9.37483e-06
1.0641e-05
1.16344e-05
1.24192e-05
1.30501e-05
1.35663e-05
1.39965e-05
1.4382e-05
1.47546e-05
1.51183e-05
1.54839e-05
1.58598e-05
1.62493e-05
1.66516e-05
1.70642e-05
1.74867e-05
1.79286e-05
1.84215e-05
1.90193e-05
1.97193e-05
2.04839e-05
2.12973e-05
2.21579e-05
2.30679e-05
2.403e-05
2.50447e-05
2.61096e-05
2.72181e-05
2.83575e-05
2.9521e-05
3.07014e-05
3.18894e-05
3.30797e-05
3.42671e-05
3.54482e-05
3.66203e-05
3.7782e-05
3.89323e-05
4.00713e-05
4.11997e-05
4.23193e-05
4.34327e-05
4.45438e-05
4.56582e-05
4.67835e-05
4.79301e-05
4.90738e-05
5.02094e-05
5.13399e-05
5.24651e-05
5.35858e-05
5.47024e-05
5.58152e-05
5.69247e-05
5.80311e-05
5.91346e-05
6.02353e-05
6.13334e-05
6.24289e-05
6.35217e-05
6.46117e-05
6.56989e-05
6.67829e-05
6.78637e-05
6.89409e-05
7.00142e-05
7.10833e-05
7.21478e-05
7.32072e-05
7.42612e-05
7.53093e-05
7.6351e-05
7.73857e-05
7.8413e-05
7.94323e-05
8.0443e-05
8.14446e-05
8.24365e-05
8.34181e-05
8.43889e-05
8.53481e-05
8.62952e-05
8.72296e-05
8.81507e-05
8.90578e-05
8.99503e-05
9.08276e-05
9.1689e-05
9.25338e-05
9.33613e-05
9.41706e-05
9.4961e-05
9.57315e-05
9.64809e-05
9.72082e-05
9.7912e-05
9.85914e-05
9.92454e-05
9.98747e-05
0.000100483
0.000101072
0.000101636
0.000102179
0.000102698
0.000103194
0.000103666
0.000104115
0.00010454
0.000104939
0.000105315
0.000105665
0.000105989
0.000106289
0.000106562
0.00010681
0.000107031
0.000107226
0.000107395
0.000107538
0.000107654
0.000107743
0.000107806
0.000107843
0.000107853
0.000107837
0.000107794
0.000107726
0.000107631
0.00010751
0.000107365
0.000107199
0.000107002
0.000106778
0.000106527
0.000106256
0.000105967
0.000105649
0.000105309
0.000104946
0.00010456
0.000104153
0.000103725
0.000103276
0.000102806
0.000102317
0.000101809
0.000101282
0.000100737
0.000100175
9.95955e-05
9.9e-05
9.83889e-05
9.77629e-05
9.71228e-05
9.64691e-05
9.58028e-05
9.51244e-05
9.44347e-05
9.37347e-05
9.30252e-05
9.23077e-05
9.15847e-05
9.08647e-05
9.02335e-05
8.97977e-05
8.93901e-05
8.89814e-05
8.85692e-05
8.81533e-05
8.77337e-05
8.73101e-05
8.68815e-05
8.64457e-05
8.59975e-05
8.55265e-05
8.50016e-05
8.43632e-05
8.25047e-05
4.45469e-06
1.82393e-05
4.04283e-05
5.97363e-05
7.39168e-05
8.39204e-05
9.10102e-05
9.6074e-05
9.9644e-05
0.000102022
0.000103738
0.000105378
0.000107171
0.00010915
0.00011125
0.000113381
0.000115458
0.000117428
0.00011928
0.000121069
0.000122609
0.000123945
0.000125251
0.000126637
0.000128177
0.000129942
0.000132014
0.000134499
0.000137544
0.000141278
0.00014546
0.000150074
0.000155096
0.000160522
0.000166325
0.000172462
0.000178931
0.000185692
0.00019271
0.000199952
0.000207381
0.000214963
0.000222663
0.000230447
0.000238287
0.000246155
0.000254036
0.000261934
0.000269885
0.000277878
0.00028592
0.000294012
0.000302158
0.000310361
0.000318623
0.000326949
0.000335342
0.000343805
0.000352342
0.000360957
0.000369653
0.000378433
0.000387298
0.000396251
0.000405293
0.000414426
0.00042365
0.000432965
0.000442372
0.000451869
0.000461455
0.000471128
0.000480886
0.000490728
0.000500648
0.000510645
0.000520713
0.00053085
0.000541048
0.000551305
0.000561614
0.00057197
0.000582367
0.000592798
0.000603258
0.000613739
0.000624235
0.00063474
0.000645248
0.000655752
0.000666247
0.000676726
0.000687184
0.000697615
0.000708012
0.000718366
0.000728663
0.000738879
0.000748976
0.000758881
0.000768464
0.000777507
0.000785963
0.000794364
0.00080261
0.000810721
0.000818687
0.000826504
0.000834164
0.000841663
0.000848994
0.000856152
0.000863131
0.000869925
0.00087653
0.000882941
0.000889152
0.00089516
0.00090096
0.000906548
0.00091192
0.000917073
0.000922003
0.000926707
0.000931181
0.000935424
0.000939434
0.000943208
0.000946747
0.000950052
0.000953122
0.000955948
0.000958545
0.000960972
0.00096307
0.000964783
0.000966298
0.000967751
0.00096889
0.000969774
0.000970421
0.00097083
0.000971005
0.000970949
0.000970662
0.000970151
0.000969419
0.00096847
0.000967308
0.000965936
0.000964359
0.000962583
0.000960612
0.000958452
0.000956107
0.000953585
0.000950892
0.000948032
0.000945013
0.000941841
0.00093852
0.000935054
0.000931439
0.000927643
0.000923476
0.00091798
0.000910771
0.000902996
0.000895011
0.000886917
0.000878748
0.000870521
0.000862241
0.000853904
0.000845489
0.000836946
0.000828125
0.000818754
0.000807409
0.000779487
5.76933e-06
2.71712e-05
6.25191e-05
9.52705e-05
0.000121648
0.000141658
0.00015634
0.000167007
0.000174812
0.000180619
0.000185155
0.000189006
0.000192563
0.000196042
0.000199533
0.000203047
0.000206556
0.000210022
0.000213407
0.000216675
0.000220077
0.000223807
0.000227979
0.000232694
0.000238052
0.000244132
0.000250987
0.000258613
0.000266914
0.000275741
0.000285309
0.000295623
0.000306641
0.000318311
0.000330954
0.000344345
0.000358208
0.000372475
0.000387092
0.000402003
0.000417163
0.000432531
0.000448068
0.000463741
0.000479527
0.000495405
0.000511363
0.000527401
0.000543537
0.00055977
0.000576105
0.000592544
0.000609093
0.000625757
0.000642541
0.000659451
0.000676492
0.000693669
0.000710988
0.000728455
0.000746075
0.000763851
0.000781786
0.000799882
0.000818138
0.000836556
0.000855135
0.000873873
0.000892768
0.000911816
0.000931014
0.000950356
0.000969836
0.000989449
0.00100919
0.00102904
0.001049
0.00106907
0.00108922
0.00110945
0.00112974
0.0011501
0.00117049
0.00119092
0.00121137
0.00123182
0.00125226
0.00127269
0.00129308
0.00131342
0.0013337
0.0013539
0.00137401
0.00139401
0.00141388
0.00143359
0.00145311
0.0014724
0.0014914
0.00151003
0.00152821
0.00154588
0.00156314
0.00158016
0.00159689
0.00161333
0.00162946
0.00164528
0.00166076
0.0016759
0.00169068
0.0017051
0.00171913
0.00173278
0.00174603
0.00175887
0.00177129
0.00178328
0.00179483
0.00180594
0.0018166
0.0018268
0.00183653
0.00184579
0.00185457
0.00186287
0.00187068
0.001878
0.00188483
0.00189117
0.00189702
0.00190237
0.00190726
0.00191175
0.00191565
0.00191875
0.00192144
0.00192386
0.00192571
0.00192704
0.00192789
0.00192824
0.00192811
0.00192751
0.00192644
0.0019249
0.00192291
0.00192048
0.0019176
0.0019143
0.00191057
0.00190644
0.00190191
0.00189699
0.00189169
0.00188602
0.00188001
0.00187365
0.00186697
0.00185997
0.00185267
0.00184507
0.00183718
0.00182893
0.00182011
0.00180993
0.00179804
0.00178525
0.00177201
0.0017585
0.00174478
0.00173091
0.00171689
0.00170273
0.00168838
0.00167375
0.00165854
0.00164199
0.00162135
0.00157919
6.70473e-06
3.74589e-05
8.39715e-05
0.000125906
0.000159594
0.00018546
0.000204825
0.000219138
0.00022973
0.000237735
0.000244072
0.000249452
0.000254379
0.000259183
0.000264055
0.000269097
0.00027436
0.000279883
0.000285715
0.000291935
0.000298668
0.000306036
0.000314142
0.000323073
0.000332897
0.000343664
0.000355394
0.000368083
0.000381708
0.000396256
0.000411755
0.000428193
0.000445551
0.000463814
0.000482552
0.000501724
0.000521395
0.000541512
0.00056201
0.000582822
0.000603901
0.000625235
0.000646793
0.000668552
0.0006905
0.000712643
0.000735009
0.000757567
0.000780276
0.000803132
0.00082614
0.000849305
0.000872633
0.00089613
0.000919802
0.000943654
0.000967693
0.000991924
0.00101635
0.00104098
0.00106582
0.00109088
0.00111614
0.00114162
0.00116731
0.00119322
0.00121933
0.00124565
0.00127217
0.00129889
0.00132579
0.00135288
0.00138013
0.00140754
0.00143511
0.00146281
0.00149064
0.00151858
0.00154661
0.00157473
0.00160291
0.00163115
0.00165941
0.0016877
0.00171598
0.00174424
0.00177246
0.00180062
0.0018287
0.00185669
0.00188456
0.00191228
0.00193984
0.00196721
0.00199435
0.00202124
0.00204785
0.00207411
0.0021
0.00212545
0.0021504
0.00217488
0.00219895
0.00222265
0.00224595
0.00226884
0.0022913
0.00231332
0.00233487
0.00235594
0.00237651
0.00239657
0.0024161
0.00243509
0.00245352
0.00247139
0.00248867
0.00250535
0.00252143
0.0025369
0.00255173
0.00256593
0.00257948
0.00259238
0.00260461
0.00261617
0.00262706
0.00263727
0.00264681
0.00265566
0.00266383
0.00267132
0.0026782
0.00268457
0.00268993
0.00269431
0.00269827
0.00270163
0.00270427
0.00270621
0.00270747
0.00270806
0.00270798
0.00270724
0.00270585
0.00270382
0.00270116
0.00269788
0.002694
0.00268951
0.00268444
0.0026788
0.0026726
0.00266586
0.00265859
0.00265081
0.00264253
0.00263377
0.00262455
0.00261489
0.0026048
0.00259429
0.00258336
0.00257196
0.00255991
0.00254673
0.00253217
0.00251666
0.00250055
0.00248403
0.00246721
0.00245014
0.00243286
0.00241537
0.00239764
0.00237955
0.00236077
0.00234037
0.00231509
0.00227029
7.36163e-06
4.80709e-05
0.000104568
0.00015387
0.000193287
0.000223544
0.000246351
0.000263422
0.000276283
0.000286222
0.000294283
0.000301273
0.000307781
0.000314212
0.000320829
0.000327793
0.000335211
0.000343163
0.000351725
0.000360982
0.000371027
0.000381949
0.000393825
0.000406717
0.000420668
0.0004357
0.000451817
0.000469005
0.000487237
0.000506481
0.000526699
0.000547832
0.000569803
0.000592513
0.000615829
0.000639695
0.000664079
0.000688937
0.000714221
0.000739899
0.000765931
0.000792254
0.000818837
0.000845658
0.000872697
0.000899932
0.00092733
0.000954894
0.000982652
0.00101061
0.00103877
0.00106714
0.00109571
0.00112451
0.00115353
0.00118277
0.00121225
0.00124195
0.00127189
0.00130206
0.00133248
0.00136315
0.00139407
0.00142523
0.00145664
0.00148829
0.00152018
0.00155229
0.00158463
0.00161718
0.00164993
0.00168287
0.00171599
0.00174928
0.00178272
0.0018163
0.00185
0.0018838
0.00191769
0.00195164
0.00198565
0.00201968
0.00205372
0.00208775
0.00212174
0.00215568
0.00218953
0.00222329
0.00225692
0.0022904
0.00232371
0.00235682
0.00238969
0.00242232
0.00245465
0.00248667
0.00251833
0.0025496
0.00258046
0.00261088
0.00264084
0.00267035
0.00269939
0.00272798
0.0027561
0.00278373
0.00281084
0.00283742
0.00286344
0.00288889
0.00291376
0.00293801
0.00296164
0.00298462
0.00300695
0.0030286
0.00304956
0.00306981
0.00308935
0.00310816
0.00312623
0.00314354
0.00316009
0.00317586
0.00319086
0.00320506
0.00321846
0.00323106
0.00324286
0.00325385
0.00326404
0.00327344
0.00328224
0.00329016
0.00329698
0.00330274
0.00330805
0.00331252
0.00331616
0.00331899
0.00332101
0.00332222
0.00332265
0.00332229
0.00332116
0.00331927
0.00331663
0.00331324
0.00330913
0.0033043
0.00329877
0.00329255
0.00328566
0.00327812
0.00326993
0.00326113
0.00325171
0.00324172
0.00323116
0.00322005
0.00320841
0.00319626
0.0031836
0.00317039
0.00315652
0.00314171
0.00312581
0.00310902
0.00309158
0.00307364
0.00305532
0.00303668
0.00301777
0.00299861
0.00297918
0.00295938
0.00293886
0.00291662
0.00288955
0.00284678
7.83055e-06
5.78193e-05
0.000123383
0.000179262
0.000223712
0.00025786
0.000283762
0.00030338
0.00031841
0.000330267
0.000340094
0.000348777
0.000356974
0.000365153
0.000373628
0.000382609
0.000392235
0.000402608
0.000413813
0.000425925
0.000439017
0.00045315
0.000468376
0.000484729
0.000502227
0.000520869
0.00054064
0.00056151
0.000583435
0.000606366
0.000630239
0.000654987
0.000680529
0.000706784
0.000733676
0.000761146
0.000789147
0.000817632
0.000846556
0.000875879
0.000905562
0.000935566
0.000965862
0.00099643
0.00102725
0.00105831
0.00108959
0.00112109
0.00115283
0.0011848
0.00121701
0.00124945
0.00128213
0.00131505
0.00134822
0.00138165
0.00141532
0.00144926
0.00148346
0.00151793
0.00155266
0.00158764
0.00162288
0.00165836
0.00169409
0.00173005
0.00176625
0.00180267
0.0018393
0.00187614
0.00191317
0.00195038
0.00198776
0.00202529
0.00206295
0.00210074
0.00213863
0.00217661
0.00221465
0.00225274
0.00229085
0.00232898
0.00236708
0.00240515
0.00244316
0.00248109
0.00251892
0.00255661
0.00259415
0.00263151
0.00266866
0.00270558
0.00274225
0.00277862
0.00281468
0.00285039
0.00288573
0.00292066
0.00295516
0.00298922
0.00302281
0.00305592
0.00308854
0.00312066
0.00315226
0.00318332
0.00321381
0.00324371
0.00327301
0.00330168
0.00332971
0.00335707
0.00338374
0.0034097
0.00343495
0.00345946
0.00348321
0.00350619
0.00352838
0.00354978
0.00357036
0.00359012
0.00360904
0.00362712
0.00364433
0.00366068
0.00367616
0.00369075
0.00370447
0.00371729
0.00372923
0.00374038
0.00375085
0.00376018
0.00376841
0.00377562
0.00378222
0.0037879
0.00379267
0.00379654
0.00379952
0.00380162
0.00380284
0.00380321
0.00380272
0.00380139
0.00379923
0.00379624
0.00379245
0.00378787
0.0037825
0.00377637
0.00376948
0.00376186
0.00375353
0.00374449
0.00373477
0.00372439
0.00371336
0.00370171
0.00368946
0.00367661
0.00366319
0.00364918
0.00363449
0.003619
0.0036026
0.00358539
0.00356752
0.0035491
0.00353025
0.00351103
0.00349151
0.00347172
0.00345166
0.00343127
0.00341023
0.00338764
0.00336075
0.00332181
8.16668e-06
6.68809e-05
0.000140281
0.000201935
0.000250947
0.000288783
0.000317732
0.000339936
0.000357218
0.000371093
0.000382783
0.000393242
0.00040319
0.000413146
0.000423474
0.000434417
0.000446143
0.000458766
0.000472372
0.000487024
0.000502777
0.00051967
0.000537728
0.000556964
0.000577374
0.000598939
0.000621629
0.0006454
0.0006702
0.000695971
0.000722649
0.000750164
0.000778447
0.000807432
0.000837057
0.000867267
0.000898012
0.000929246
0.000960927
0.000993017
0.00102548
0.00105829
0.00109142
0.00112485
0.00115856
0.00119254
0.00122679
0.00126129
0.00129604
0.00133105
0.0013663
0.00140181
0.00143757
0.00147358
0.00150984
0.00154636
0.00158314
0.00162017
0.00165747
0.00169502
0.00173282
0.00177088
0.00180918
0.00184771
0.00188649
0.00192549
0.00196471
0.00200414
0.00204377
0.0020836
0.0021236
0.00216377
0.00220409
0.00224455
0.00228514
0.00232583
0.00236661
0.00240746
0.00244836
0.0024893
0.00253025
0.00257119
0.00261211
0.00265297
0.00269376
0.00273446
0.00277503
0.00281547
0.00285573
0.00289581
0.00293566
0.00297527
0.00301461
0.00305365
0.00309236
0.00313073
0.00316871
0.00320629
0.00324343
0.00328013
0.00331636
0.0033521
0.00338734
0.00342205
0.00345622
0.00348982
0.00352283
0.00355523
0.003587
0.0036181
0.00364853
0.00367827
0.00370728
0.00373556
0.00376307
0.00378982
0.00381577
0.00384091
0.00386523
0.00388871
0.00391133
0.00393309
0.00395397
0.00397395
0.00399304
0.00401121
0.00402845
0.00404478
0.00406016
0.00407461
0.00408814
0.00410094
0.00411276
0.00412353
0.00413312
0.0041418
0.00414968
0.00415659
0.00416255
0.00416756
0.00417163
0.00417477
0.00417698
0.00417829
0.00417869
0.00417819
0.00417682
0.00417457
0.00417147
0.00416752
0.00416273
0.00415713
0.00415072
0.00414353
0.00413556
0.00412684
0.00411738
0.0041072
0.00409632
0.00408476
0.00407254
0.00405967
0.00404617
0.00403204
0.00401724
0.0040017
0.00398537
0.00396829
0.00395055
0.00393226
0.00391349
0.00389432
0.00387483
0.00385506
0.00383506
0.00381478
0.00379399
0.0037719
0.00374622
0.00371116
8.42989e-06
7.45407e-05
0.000154477
0.000221312
0.000274624
0.000316128
0.000348212
0.000373134
0.000392812
0.000408837
0.000422499
0.00043481
0.000446543
0.000458266
0.000470383
0.000483171
0.000496819
0.000511451
0.000527152
0.00054398
0.00056197
0.000581145
0.000601511
0.000623063
0.000645784
0.000669642
0.000694595
0.000720592
0.000747578
0.000775492
0.000804272
0.000833854
0.000864178
0.000895186
0.000926839
0.000959075
0.000991842
0.0010251
0.0010588
0.00109292
0.00112742
0.00116228
0.00119748
0.001233
0.00126881
0.00130491
0.00134129
0.00137795
0.00141488
0.00145206
0.00148949
0.00152716
0.00156509
0.00160325
0.00164166
0.00168032
0.00171922
0.00175837
0.00179776
0.00183738
0.00187725
0.00191734
0.00195766
0.00199821
0.00203897
0.00207994
0.00212112
0.00216249
0.00220405
0.00224579
0.00228769
0.00232974
0.00237194
0.00241427
0.00245671
0.00249924
0.00254187
0.00258455
0.00262729
0.00267006
0.00271284
0.00275562
0.00279836
0.00284106
0.00288369
0.00292623
0.00296865
0.00301094
0.00305307
0.00309501
0.00313674
0.00317823
0.00321946
0.0032604
0.00330103
0.00334132
0.00338124
0.00342077
0.00345989
0.00349856
0.00353678
0.00357451
0.00361174
0.00364844
0.00368459
0.00372016
0.00375514
0.0037895
0.00382322
0.00385627
0.00388863
0.00392028
0.00395119
0.00398135
0.00401074
0.00403933
0.00406712
0.00409407
0.00412018
0.00414543
0.0041698
0.00419328
0.00421585
0.0042375
0.00425823
0.00427801
0.00429685
0.00431473
0.00433164
0.00434758
0.00436262
0.00437688
0.00439001
0.00440216
0.00441312
0.00442323
0.0044324
0.00444057
0.00444776
0.00445397
0.00445921
0.00446349
0.00446682
0.0044692
0.00447066
0.00447118
0.0044708
0.00446952
0.00446734
0.00446428
0.00446037
0.00445559
0.00444998
0.00444355
0.00443631
0.00442828
0.00441947
0.0044099
0.00439959
0.00438855
0.00437682
0.0043644
0.0043513
0.00433754
0.00432311
0.00430796
0.00429209
0.00427551
0.00425829
0.00424049
0.0042222
0.00420349
0.00418445
0.00416513
0.00414561
0.00412588
0.00410578
0.00408466
0.00406069
0.0040299
8.92778e-06
7.82853e-05
0.000163987
0.000236269
0.000294099
0.000339513
0.000374931
0.000402742
0.000424966
0.000443268
0.000458997
0.000473218
0.000486752
0.000500208
0.000514026
0.000528514
0.00054388
0.00056026
0.000577742
0.000596377
0.000616193
0.000637195
0.000659375
0.000682718
0.000707205
0.000732814
0.000759477
0.000787134
0.000815728
0.0008452
0.000875491
0.00090654
0.000938288
0.000970668
0.00100366
0.00103723
0.00107135
0.00110597
0.00114106
0.00117657
0.00121248
0.00124876
0.00128535
0.00132221
0.00135938
0.00139683
0.00143458
0.00147263
0.00151095
0.00154951
0.0015883
0.00162731
0.00166655
0.00170602
0.0017457
0.00178561
0.00182573
0.00186608
0.00190664
0.00194742
0.00198842
0.00202962
0.00207103
0.00211265
0.00215446
0.00219647
0.00223868
0.00228106
0.00232362
0.00236636
0.00240925
0.00245229
0.00249548
0.0025388
0.00258224
0.00262578
0.00266942
0.00271314
0.00275692
0.00280075
0.0028446
0.00288847
0.00293234
0.00297618
0.00301997
0.0030637
0.00310734
0.00315087
0.00319426
0.0032375
0.00328055
0.00332339
0.003366
0.00340835
0.00345041
0.00349216
0.00353357
0.00357462
0.00361527
0.00365551
0.0036953
0.00373463
0.00377347
0.00381179
0.00384957
0.00388678
0.00392341
0.00395941
0.00399478
0.00402948
0.00406349
0.00409678
0.00412934
0.00416114
0.00419217
0.00422239
0.0042518
0.00428036
0.00430807
0.00433491
0.00436085
0.00438589
0.00441001
0.0044332
0.00445544
0.00447673
0.00449704
0.00451639
0.00453474
0.00455211
0.00456862
0.00458416
0.00459866
0.00461216
0.00462452
0.00463602
0.0046465
0.00465595
0.00466441
0.00467187
0.00467834
0.00468384
0.00468837
0.00469194
0.00469456
0.00469624
0.00469699
0.00469682
0.00469575
0.00469378
0.00469092
0.00468719
0.00468261
0.00467717
0.00467091
0.00466383
0.00465595
0.00464729
0.00463785
0.00462766
0.00461674
0.00460509
0.00459275
0.00457971
0.00456598
0.00455156
0.00453643
0.00452062
0.00450417
0.00448714
0.0044696
0.00445163
0.00443331
0.00441473
0.00439596
0.00437705
0.00435789
0.00433797
0.00431587
0.00428933
9.4828e-06
7.96677e-05
0.000169843
0.000247221
0.000309478
0.000358876
0.000397732
0.000428545
0.000453417
0.000474083
0.000491942
0.000508105
0.000523431
0.000538567
0.000553986
0.000570021
0.0005869
0.00060477
0.000623724
0.000643831
0.000665114
0.000687544
0.00071109
0.000735708
0.000761329
0.000787936
0.000815542
0.000844107
0.000873578
0.000903902
0.000935025
0.000966897
0.000999469
0.0010327
0.00106657
0.00110101
0.00113597
0.00117142
0.00120731
0.00124361
0.00128028
0.00131731
0.0013547
0.00139241
0.00143043
0.00146872
0.00150726
0.00154598
0.00158495
0.00162413
0.00166349
0.00170304
0.00174277
0.00178269
0.0018228
0.00186309
0.00190358
0.00194425
0.00198512
0.00202618
0.00206744
0.00210888
0.00215052
0.00219235
0.00223437
0.00227658
0.00231898
0.00236157
0.00240434
0.00244729
0.00249042
0.00253372
0.00257717
0.00262079
0.00266455
0.00270844
0.00275246
0.0027966
0.00284084
0.00288516
0.00292956
0.00297401
0.0030185
0.00306301
0.00310751
0.003152
0.00319645
0.00324082
0.00328511
0.00332929
0.00337333
0.0034172
0.00346088
0.00350435
0.00354757
0.00359051
0.00363315
0.00367546
0.00371742
0.00375899
0.00380014
0.00384085
0.00388109
0.00392084
0.00396006
0.00399873
0.00403683
0.00407431
0.00411117
0.00414737
0.00418288
0.00421769
0.00425177
0.00428508
0.00431762
0.00434936
0.00438028
0.00441036
0.00443957
0.00446791
0.00449535
0.00452188
0.00454747
0.00457213
0.00459583
0.00461857
0.00464032
0.00466109
0.00468086
0.00469965
0.00471753
0.00473438
0.00475024
0.00476509
0.00477891
0.00479178
0.0048036
0.00481437
0.00482412
0.00483288
0.00484065
0.00484743
0.00485324
0.00485808
0.00486197
0.0048649
0.0048669
0.00486797
0.00486813
0.00486738
0.00486574
0.00486322
0.00485983
0.00485558
0.00485049
0.00484457
0.00483783
0.00483029
0.00482196
0.00481286
0.00480299
0.00479238
0.00478104
0.00476899
0.00475623
0.00474277
0.00472862
0.00471379
0.00469831
0.00468225
0.00466567
0.00464864
0.00463124
0.00461358
0.00459575
0.00457782
0.00455974
0.00454112
0.00452085
0.00449777
9.97076e-06
7.98539e-05
0.000173152
0.000254843
0.000321131
0.000374345
0.000416594
0.000450415
0.000477964
0.000501021
0.000521027
0.000539126
0.000556209
0.000572951
0.000589854
0.000607291
0.000625501
0.000644603
0.000664658
0.000685659
0.000707689
0.000730811
0.000755025
0.000780312
0.000806664
0.00083407
0.000862468
0.000891772
0.000921923
0.000952868
0.000984558
0.00101695
0.00104999
0.00108364
0.00111785
0.00115258
0.00118776
0.00122338
0.0012594
0.00129579
0.00133254
0.0013696
0.00140697
0.0014446
0.00148248
0.0015206
0.00155896
0.00159763
0.00163654
0.0016756
0.00171475
0.00175401
0.00179339
0.00183291
0.00187257
0.00191239
0.00195238
0.00199253
0.00203285
0.00207334
0.00211402
0.00215489
0.00219595
0.00223722
0.00227868
0.00232035
0.00236224
0.00240434
0.00244665
0.00248918
0.00253193
0.00257489
0.00261806
0.00266145
0.00270503
0.00274881
0.00279277
0.00283691
0.00288121
0.00292567
0.00297026
0.00301498
0.0030598
0.0031047
0.00314967
0.00319468
0.00323971
0.00328474
0.00332974
0.00337468
0.00341955
0.0034643
0.00350892
0.00355337
0.00359762
0.00364164
0.0036854
0.00372888
0.00377203
0.00381484
0.00385726
0.00389926
0.00394083
0.00398192
0.00402251
0.00406257
0.00410207
0.00414097
0.00417926
0.0042169
0.00425387
0.00429013
0.00432567
0.00436046
0.00439447
0.00442769
0.00446008
0.00449164
0.00452232
0.00455213
0.00458104
0.00460903
0.00463609
0.0046622
0.00468735
0.00471152
0.00473471
0.0047569
0.00477809
0.00479829
0.00481751
0.00483573
0.00485299
0.00486924
0.00488448
0.00489881
0.00491199
0.0049241
0.00493522
0.00494533
0.00495445
0.00496259
0.00496974
0.00497593
0.00498117
0.00498545
0.0049888
0.00499121
0.00499272
0.00499332
0.00499302
0.00499184
0.00498979
0.00498689
0.00498313
0.00497854
0.00497312
0.00496688
0.00495985
0.00495203
0.00494342
0.00493406
0.00492394
0.00491309
0.00490152
0.00488923
0.00487625
0.00486258
0.00484826
0.00483334
0.00481788
0.00480195
0.00478563
0.00476905
0.00475229
0.00473545
0.00471853
0.00470122
0.00468268
0.0046625
1.03875e-05
7.91846e-05
0.000174429
0.000259582
0.00032939
0.000386105
0.000431572
0.000468307
0.000498479
0.000523886
0.000545995
0.000565984
0.000584772
0.000603005
0.000621157
0.000639525
0.000658446
0.000678169
0.000698836
0.000720565
0.000743421
0.000767337
0.000792277
0.000818215
0.000845118
0.000872924
0.000901552
0.000930983