/*--------------------------------*- C++ -*----------------------------------*\
| =========                 |                                                 |
| \\      /  F ield         | OpenFOAM: The Open Source CFD Toolbox           |
|  \\    /   O peration     | Version:  2212                                  |
|   \\  /    A nd           | Website:  www.openfoam.com                      |
|    \\/     M anipulation  |                                                 |
\*---------------------------------------------------------------------------*/
FoamFile
{
    version     2.0;
    format      ascii;
    arch        "LSB;label=32;scalar=64";
    class       volScalarField;
    location    "282";
    object      p;
}
// * * * * * * * * * * * * * * * * * * * * * * * * * * * * * * * * * * * * * //

dimensions      [0 2 -2 0 0 0 0];

internalField   nonuniform List<scalar> 
12225
(
-1.73582
-3.89306
-4.98568
-5.29947
-5.4763
-5.65509
-5.80319
-5.91485
-6.00652
-6.08949
-6.16686
-6.2397
-6.30969
-6.37883
-6.4496
-6.52146
-6.60903
-6.66232
-4.86606
-5.65372
-5.85867
-5.77073
-5.74573
-5.81004
-5.89316
-5.96749
-6.037
-6.10627
-6.1749
-6.24197
-6.30802
-6.37425
-6.44236
-6.51361
-6.59281
-6.69592
-5.24607
-5.18003
-5.29952
-5.38663
-5.49503
-5.63755
-5.77239
-5.88287
-5.97689
-6.06256
-6.14234
-6.21709
-6.28837
-6.35794
-6.42782
-6.49924
-6.57698
-6.65999
-5.11877
-5.03133
-5.29059
-5.48275
-5.60529
-5.72657
-5.8402
-5.9346
-6.01577
-6.09099
-6.16256
-6.23091
-6.29704
-6.36222
-6.42777
-6.49445
-6.5634
-6.62938
-5.11035
-5.12489
-5.37193
-5.53698
-5.62997
-5.72845
-5.83073
-5.92119
-6.00127
-6.07637
-6.14826
-6.2171
-6.28353
-6.34853
-6.41301
-6.47717
-6.5406
-6.5996
-5.1714
-5.21646
-5.403
-5.54303
-5.63325
-5.7294
-5.82997
-5.92041
-6.00072
-6.07558
-6.14688
-6.21488
-6.28018
-6.34356
-6.40561
-6.46622
-6.52457
-6.57785
-5.23401
-5.27626
-5.42032
-5.5507
-5.64482
-5.73862
-5.83467
-5.92235
-6.00095
-6.07421
-6.14393
-6.21043
-6.27414
-6.3356
-6.39513
-6.45242
-6.50653
-6.55517
-5.28953
-5.32672
-5.44427
-5.56515
-5.65873
-5.7479
-5.83842
-5.92289
-5.99968
-6.07141
-6.13966
-6.20473
-6.2669
-6.3265
-6.38365
-6.43794
-6.4885
-6.53361
-5.34131
-5.37515
-5.47276
-5.58164
-5.67177
-5.75641
-5.84191
-5.92319
-5.99806
-6.06815
-6.13479
-6.19829
-6.25877
-6.31641
-6.3712
-6.42273
-6.47029
-6.51263
-5.39041
-5.42102
-5.50243
-5.59908
-5.68468
-5.76519
-5.84599
-5.92382
-5.99642
-6.06462
-6.12945
-6.19117
-6.24982
-6.30544
-6.35795
-6.40699
-6.45202
-6.49214
-5.43663
-5.46375
-5.53221
-5.61759
-5.69798
-5.77434
-5.85059
-5.92478
-5.99482
-6.06091
-6.12376
-6.18357
-6.24029
-6.29388
-6.34422
-6.39102
-6.43389
-6.47222
-5.47618
-5.50021
-5.55917
-5.63529
-5.71043
-5.78288
-5.85512
-5.92591
-5.99342
-6.05744
-6.11836
-6.17631
-6.23121
-6.28296
-6.33143
-6.37637
-6.41754
-6.45449
-5.51252
-5.5339
-5.58506
-5.65294
-5.72279
-5.79133
-5.85974
-5.92719
-5.99209
-6.05396
-6.11291
-6.16898
-6.22206
-6.27203
-6.31874
-6.362
-6.40168
-6.43745
-5.5503
-5.56907
-5.61296
-5.67271
-5.73665
-5.80073
-5.86498
-5.92871
-5.9906
-6.04993
-6.10658
-6.1605
-6.21154
-6.25954
-6.30439
-6.34595
-6.38414
-6.41878
-5.58801
-5.60424
-5.64164
-5.69374
-5.75147
-5.81067
-5.87051
-5.93026
-5.98876
-6.04521
-6.09929
-6.15082
-6.19963
-6.24557
-6.28851
-6.32836
-6.36512
-6.39868
-5.62334
-5.63725
-5.66913
-5.7144
-5.76607
-5.82024
-5.87561
-5.93128
-5.98622
-6.03959
-6.09091
-6.13992
-6.18643
-6.23026
-6.27133
-6.30956
-6.34497
-6.37753
-5.65292
-5.6649
-5.69238
-5.73202
-5.7783
-5.82778
-5.87894
-5.93075
-5.98223
-6.03255
-6.08115
-6.12771
-6.17199
-6.21384
-6.25316
-6.28992
-6.32414
-6.35582
-5.67175
-5.68235
-5.70677
-5.74242
-5.78469
-5.8305
-5.87829
-5.92697
-5.97559
-6.02332
-6.0696
-6.11406
-6.15646
-6.19664
-6.23453
-6.27008
-6.30332
-6.3343
-5.67211
-5.68207
-5.70517
-5.73914
-5.77968
-5.8238
-5.8699
-5.91695
-5.96402
-6.01031
-6.05524
-6.09844
-6.1397
-6.17888
-6.2159
-6.25076
-6.28348
-6.31414
-5.6479
-5.65839
-5.6827
-5.71846
-5.76087
-5.80644
-5.85358
-5.90144
-5.94918
-5.99595
-6.04118
-6.08456
-6.12591
-6.16512
-6.20214
-6.23697
-6.26967
-6.30034
-5.61365
-5.62504
-5.65183
-5.69147
-5.73774
-5.78632
-5.83589
-5.88594
-5.93553
-5.98372
-6.03003
-6.07427
-6.11631
-6.15608
-6.19356
-6.22879
-6.26185
-6.29287
-5.57135
-5.58345
-5.61403
-5.66031
-5.71227
-5.76443
-5.81704
-5.87026
-5.92265
-5.97298
-6.02091
-6.06642
-6.10944
-6.14995
-6.18797
-6.22361
-6.25697
-6.28819
-5.52439
-5.53581
-5.57091
-5.62725
-5.6869
-5.7431
-5.79902
-5.85559
-5.91083
-5.96342
-6.01325
-6.06038
-6.10475
-6.14633
-6.18521
-6.22156
-6.25555
-6.28741
-5.47534
-5.48442
-5.52585
-5.59359
-5.66003
-5.72121
-5.78277
-5.84397
-5.90198
-5.95631
-6.00751
-6.05575
-6.10091
-6.14302
-6.18227
-6.21889
-6.25303
-6.28483
-5.42419
-5.4255
-5.4885
-5.57039
-5.6342
-5.6951
-5.76288
-5.8308
-5.89345
-5.95116
-6.00522
-6.05576
-6.10261
-6.1459
-6.18596
-6.22314
-6.25774
-6.29027
-5.37792
-5.32947
-5.44541
-5.56713
-5.62995
-5.68285
-5.74777
-5.81476
-5.87677
-5.93454
-5.98933
-6.04092
-6.08887
-6.13325
-6.17436
-6.21255
-6.24801
-6.28091
-5.39501
-5.19702
-5.33038
-5.50868
-5.6142
-5.69507
-5.77481
-5.8474
-5.91073
-5.96818
-6.02169
-6.07127
-6.11678
-6.15857
-6.1971
-6.23281
-6.26619
-6.29829
-5.5359
-5.28846
-5.2651
-5.32045
-5.40355
-5.51224
-5.62371
-5.72161
-5.80657
-5.88315
-5.95297
-6.01593
-6.07226
-6.12282
-6.16841
-6.20967
-6.24742
-6.28298
-5.26388
-5.89462
-6.01339
-5.87355
-5.78597
-5.7934
-5.83569
-5.8807
-5.92639
-5.97468
-6.02378
-6.07124
-6.11572
-6.15717
-6.19562
-6.23096
-6.26353
-6.29472
-2.20943
-3.97655
-4.9899
-5.27148
-5.39804
-5.54083
-5.67083
-5.77159
-5.85392
-5.9272
-5.99349
-6.05269
-6.10536
-6.15241
-6.19456
-6.232
-6.26486
-6.29161
-7.07625
-7.07599
-7.07595
-7.07636
-7.07719
-7.07835
-7.07976
-7.08131
-7.08293
-7.08461
-7.08636
-7.0882
-7.09014
-7.09221
-7.09443
-7.09684
-7.09946
-7.10233
-7.10548
-7.10895
-7.11279
-7.11704
-7.12172
-7.12689
-7.1326
-7.13891
-7.1459
-7.15363
-7.16218
-7.17165
-7.18211
-7.19364
-7.20629
-7.22012
-7.23516
-7.25144
-7.26896
-7.2877
-7.30764
-7.32874
-7.35095
-7.3742
-7.39842
-7.42355
-7.44952
-7.47631
-7.50382
-7.5319
-7.56041
-7.58929
-7.61846
-7.64786
-7.67744
-7.70712
-7.73684
-7.76652
-7.79609
-7.82546
-7.85456
-7.8833
-7.91157
-7.93929
-7.96633
-7.99259
-8.01795
-8.04228
-8.06545
-8.08732
-8.10772
-8.12652
-8.14355
-8.15865
-8.17162
-8.18231
-8.19051
-8.19605
-8.19872
-8.19833
-8.19467
-8.18754
-8.17673
-8.16203
-8.14324
-8.12014
-8.09253
-8.06021
-8.02296
-7.98059
-7.9329
-7.8797
-7.82082
-7.75606
-7.68527
-7.60828
-7.52495
-7.43512
-7.33867
-7.23545
-7.12546
-7.00878
-6.88546
-6.75514
-6.61736
-6.47211
-6.31956
-6.15978
-5.99278
-5.8186
-5.63729
-5.44888
-5.25346
-5.05111
-4.84193
-4.62605
-4.40359
-4.17472
-3.9396
-3.69842
-3.45136
-3.19867
-2.94055
-2.67726
-2.40904
-2.13617
-1.85891
-1.57757
-1.29243
-1.00382
-0.712042
-0.417431
-0.120317
0.178977
0.480131
0.782806
1.08663
1.39122
1.69627
2.00145
2.3064
2.61078
2.91426
3.21651
3.5172
3.81602
4.11267
4.40685
4.69827
4.98667
5.27177
5.55332
5.83111
6.10488
6.37446
6.63962
6.90021
7.15605
7.407
7.65292
7.89369
8.12921
8.35938
8.58413
8.80339
9.01713
9.22532
9.4281
9.62533
9.81668
10.0021
10.1817
10.3554
10.5234
10.6856
10.8422
10.9933
11.1392
11.2811
11.42
11.5662
11.7161
-7.07671
-7.07649
-7.07648
-7.07696
-7.07784
-7.07891
-7.08006
-7.08125
-7.08246
-7.08368
-7.08493
-7.08624
-7.08766
-7.08923
-7.09096
-7.0929
-7.09504
-7.09743
-7.1001
-7.10305
-7.1063
-7.1099
-7.11391
-7.11841
-7.12344
-7.1291
-7.13546
-7.1426
-7.15063
-7.15961
-7.16963
-7.18077
-7.19308
-7.20663
-7.22144
-7.23754
-7.2549
-7.27352
-7.29334
-7.31431
-7.33639
-7.35949
-7.38355
-7.40848
-7.43421
-7.46068
-7.4878
-7.51547
-7.54358
-7.57208
-7.60088
-7.62993
-7.65916
-7.68851
-7.7179
-7.74727
-7.77655
-7.80565
-7.8345
-7.86301
-7.89108
-7.91862
-7.94552
-7.97166
-7.99694
-8.02122
-8.04438
-8.06627
-8.08674
-8.10564
-8.12281
-8.13809
-8.1513
-8.16226
-8.17079
-8.17669
-8.17978
-8.17985
-8.17671
-8.17014
-8.15995
-8.14593
-8.12786
-8.10554
-8.07876
-8.04731
-8.011
-7.96963
-7.92299
-7.8709
-7.81318
-7.74965
-7.68015
-7.60452
-7.52261
-7.43428
-7.33939
-7.23781
-7.12942
-7.01406
-6.89153
-6.76179
-6.62502
-6.48125
-6.33032
-6.17221
-6.00692
-5.83447
-5.65488
-5.46821
-5.27453
-5.07391
-4.86646
-4.65229
-4.43155
-4.20436
-3.97091
-3.73137
-3.48593
-3.23482
-2.97825
-2.71646
-2.44971
-2.17826
-1.90237
-1.62234
-1.33847
-1.05106
-0.760427
-0.466897
-0.1708
0.127541
0.427812
0.72968
1.03277
1.3367
1.64117
1.94583
2.25035
2.55439
2.8576
3.15966
3.46024
3.75903
4.05573
4.35003
4.64165
4.93032
5.21577
5.49774
5.77601
6.05034
6.32052
6.58637
6.84768
7.10431
7.35609
7.6029
7.8446
8.08108
8.31227
8.53807
8.75847
8.97341
9.18282
9.38629
9.58373
9.77535
9.96112
10.1411
10.3153
10.4837
10.6465
10.8037
10.9556
11.1026
11.2462
11.3869
11.5364
11.6822
-7.07567
-7.0757
-7.07599
-7.07665
-7.07756
-7.0785
-7.07937
-7.08017
-7.08091
-7.08164
-7.08238
-7.08317
-7.08407
-7.08508
-7.08624
-7.08756
-7.08908
-7.09082
-7.09283
-7.09515
-7.09784
-7.10097
-7.1046
-7.10882
-7.11369
-7.1193
-7.12574
-7.13309
-7.14139
-7.15072
-7.16114
-7.17268
-7.18539
-7.19929
-7.21438
-7.23065
-7.24808
-7.26664
-7.28628
-7.30697
-7.32865
-7.35127
-7.37475
-7.39905
-7.4241
-7.44982
-7.47616
-7.50302
-7.53035
-7.55807
-7.58613
-7.61445
-7.64298
-7.67165
-7.70039
-7.72914
-7.75783
-7.78638
-7.8147
-7.84271
-7.87032
-7.89744
-7.92395
-7.94975
-7.97472
-7.99873
-8.02166
-8.04337
-8.0637
-8.08252
-8.09965
-8.11494
-8.12821
-8.13929
-8.148
-8.15413
-8.15751
-8.15794
-8.15521
-8.14912
-8.13947
-8.12605
-8.10866
-8.08708
-8.06111
-8.03055
-7.99519
-7.95483
-7.90928
-7.85834
-7.80184
-7.7396
-7.67144
-7.59721
-7.51676
-7.42994
-7.33661
-7.23667
-7.13001
-7.01647
-6.89586
-6.76809
-6.63326
-6.49138
-6.3424
-6.18629
-6.02303
-5.85263
-5.67512
-5.49055
-5.29898
-5.10048
-4.89516
-4.68311
-4.46449
-4.23942
-4.00807
-3.77061
-3.52723
-3.27816
-3.0236
-2.76379
-2.49897
-2.22941
-1.95537
-1.67715
-1.39502
-1.1093
-0.820299
-0.528337
-0.233745
0.0631557
0.362057
0.662624
0.964485
1.26728
1.57069
1.87438
2.178
2.48122
2.7837
3.08512
3.38514
3.68346
3.97977
4.27376
4.56516
4.85369
5.13907
5.42106
5.69941
5.9739
6.24431
6.51044
6.7721
7.02913
7.28138
7.52869
7.77094
8.00801
8.23981
8.46624
8.68719
8.90263
9.11253
9.31682
9.51545
9.7084
9.89553
10.0769
10.2524
10.4222
10.5864
10.7451
10.8987
11.0476
11.1935
11.3363
11.4888
11.624
-7.07252
-7.073
-7.07384
-7.07486
-7.07589
-7.0768
-7.07757
-7.07821
-7.07876
-7.07925
-7.07973
-7.08026
-7.08087
-7.0816
-7.08248
-7.08356
-7.08485
-7.08641
-7.08828
-7.09052
-7.09319
-7.09637
-7.10013
-7.10454
-7.10967
-7.11561
-7.12241
-7.13014
-7.13885
-7.14859
-7.15939
-7.17129
-7.18429
-7.1984
-7.2136
-7.22989
-7.24724
-7.26563
-7.28502
-7.30536
-7.32662
-7.34874
-7.37168
-7.39538
-7.41978
-7.44484
-7.47048
-7.49665
-7.5233
-7.55035
-7.57776
-7.60546
-7.63339
-7.66149
-7.6897
-7.71795
-7.74616
-7.77427
-7.80219
-7.82983
-7.85711
-7.88392
-7.91017
-7.93575
-7.96053
-7.9844
-8.00722
-8.02886
-8.04916
-8.06799
-8.08518
-8.10057
-8.11398
-8.12525
-8.13418
-8.14059
-8.14429
-8.14509
-8.14277
-8.13715
-8.12801
-8.11515
-8.09837
-8.07744
-8.05218
-8.02237
-7.98781
-7.9483
-7.90364
-7.85365
-7.79813
-7.73692
-7.66984
-7.59672
-7.51741
-7.43175
-7.33962
-7.24088
-7.13543
-7.02314
-6.90388
-6.77758
-6.64425
-6.50387
-6.35641
-6.20184
-6.04014
-5.87132
-5.6954
-5.51244
-5.32248
-5.1256
-4.9219
-4.71148
-4.49448
-4.27102
-4.04127
-3.8054
-3.5636
-3.31608
-3.06305
-2.80474
-2.5414
-2.27329
-2.00066
-1.7238
-1.44301
-1.15858
-0.870821
-0.580056
-0.286614
0.00919347
0.307057
0.606628
0.907539
1.20946
1.51206
1.815
2.11794
2.42053
2.72245
3.02337
3.32296
3.62091
3.91691
4.21067
4.50189
4.79029
5.07562
5.35761
5.63602
5.91062
6.18119
6.44753
6.70946
6.9668
7.21938
7.46707
7.70971
7.94722
8.17949
8.40642
8.62793
8.84394
9.05442
9.25938
9.45883
9.65264
9.84069
10.023
10.1995
10.3703
10.5355
10.6952
10.8499
11
11.147
11.2899
11.4415
11.5638
-7.06729
-7.06834
-7.07002
-7.07168
-7.07305
-7.07413
-7.07497
-7.07563
-7.07615
-7.07659
-7.07702
-7.07748
-7.07803
-7.07872
-7.07959
-7.08068
-7.08205
-7.08373
-7.08579
-7.08827
-7.09126
-7.09481
-7.099
-7.10389
-7.10954
-7.11603
-7.12339
-7.13167
-7.14091
-7.15113
-7.16237
-7.17464
-7.18793
-7.20226
-7.2176
-7.23394
-7.25126
-7.26953
-7.28872
-7.3088
-7.32972
-7.35145
-7.37395
-7.39716
-7.42105
-7.44557
-7.47066
-7.49628
-7.52238
-7.5489
-7.57579
-7.60299
-7.63044
-7.65809
-7.68588
-7.71373
-7.74157
-7.76934
-7.79695
-7.82432
-7.85135
-7.87795
-7.90402
-7.92944
-7.95411
-7.97789
-8.00065
-8.02227
-8.04259
-8.06146
-8.07873
-8.09423
-8.10778
-8.11922
-8.12836
-8.13502
-8.13899
-8.14009
-8.13812
-8.13287
-8.12413
-8.11171
-8.09539
-8.07498
-8.05025
-8.021
-7.98704
-7.94815
-7.90415
-7.85484
-7.80005
-7.73958
-7.67326
-7.60093
-7.52244
-7.43762
-7.34635
-7.2485
-7.14394
-7.03257
-6.91429
-6.78902
-6.65675
-6.51743
-6.37102
-6.21751
-6.05689
-5.88915
-5.71433
-5.53247
-5.34361
-5.14784
-4.94525
-4.73593
-4.52003
-4.29767
-4.069
-3.83421
-3.59348
-3.34701
-3.09502
-2.83773
-2.57539
-2.30825
-2.03657
-1.76064
-1.48074
-1.19717
-0.910251
-0.62029
-0.327615
-0.0325295
0.264647
0.563553
0.863832
1.16518
1.46726
1.76972
2.07222
2.37442
2.67599
2.97661
3.27594
3.57368
3.86952
4.16316
4.45431
4.74269
5.02803
5.31008
5.58859
5.86333
6.13409
6.40065
6.66283
6.92044
7.17333
7.42136
7.6644
7.90232
8.13502
8.3624
8.58438
8.80088
9.01183
9.21722
9.41707
9.61128
9.79977
9.98251
10.1595
10.3308
10.4966
10.6569
10.8121
10.9625
11.1096
11.2513
11.4001
11.5103
-7.06058
-7.06227
-7.06495
-7.06742
-7.06929
-7.0707
-7.07178
-7.0726
-7.07325
-7.07381
-7.07434
-7.07492
-7.07561
-7.07645
-7.07752
-7.07885
-7.08049
-7.08251
-7.08496
-7.0879
-7.09138
-7.09548
-7.10025
-7.10574
-7.11202
-7.11913
-7.1271
-7.13596
-7.14575
-7.15648
-7.16816
-7.18079
-7.19439
-7.20893
-7.22441
-7.24081
-7.25811
-7.27629
-7.29532
-7.31518
-7.33583
-7.35724
-7.37938
-7.40221
-7.42569
-7.44979
-7.47445
-7.49964
-7.52531
-7.5514
-7.57788
-7.60469
-7.63178
-7.65908
-7.68654
-7.71409
-7.74166
-7.76919
-7.79658
-7.82376
-7.85063
-7.8771
-7.90306
-7.92841
-7.95303
-7.9768
-7.99957
-8.02122
-8.04161
-8.06057
-8.07795
-8.09358
-8.1073
-8.11893
-8.12828
-8.13516
-8.13939
-8.14077
-8.13909
-8.13416
-8.12576
-8.1137
-8.09776
-8.07773
-8.05341
-8.0246
-7.99108
-7.95266
-7.90915
-7.86034
-7.80605
-7.74611
-7.68034
-7.60858
-7.53065
-7.44643
-7.35577
-7.25853
-7.15461
-7.04389
-6.92629
-6.80174
-6.67018
-6.53157
-6.38589
-6.23311
-6.07321
-5.90621
-5.73212
-5.551
-5.36289
-5.16786
-4.96601
-4.75745
-4.54229
-4.32067
-4.09274
-3.85869
-3.61868
-3.37293
-3.12165
-2.86506
-2.6034
-2.33693
-2.06591
-1.79062
-1.51134
-1.22838
-0.942036
-0.652638
-0.360498
-0.065917
0.230768
0.529194
0.829028
1.12997
1.43169
1.7338
2.03599
2.33791
2.63923
2.93963
3.23879
3.53638
3.83211
4.12567
4.41677
4.70514
4.9905
5.2726
5.55119
5.82604
6.09693
6.36366
6.62603
6.88387
7.13702
7.38532
7.62865
7.86688
8.0999
8.32762
8.54993
8.76677
8.97805
9.18375
9.38385
9.57831
9.76708
9.95011
10.1274
10.2991
10.4651
10.6257
10.7811
10.9315
11.078
11.2179
11.3637
11.4631
-7.05334
-7.05566
-7.05941
-7.06273
-7.06518
-7.06702
-7.06844
-7.06955
-7.07047
-7.07127
-7.07206
-7.0729
-7.07387
-7.07503
-7.07644
-7.07816
-7.08025
-7.08275
-7.08571
-7.08921
-7.09329
-7.098
-7.1034
-7.10953
-7.11643
-7.12414
-7.13269
-7.14209
-7.15237
-7.16354
-7.1756
-7.18856
-7.2024
-7.21713
-7.23273
-7.24919
-7.26649
-7.28461
-7.30353
-7.32323
-7.34369
-7.36487
-7.38675
-7.4093
-7.43248
-7.45626
-7.48061
-7.50547
-7.53083
-7.55662
-7.5828
-7.60933
-7.63615
-7.66321
-7.69045
-7.71781
-7.74521
-7.77258
-7.79985
-7.82694
-7.85374
-7.88017
-7.90611
-7.93147
-7.95611
-7.97993
-8.00278
-8.02452
-8.04502
-8.06411
-8.08164
-8.09745
-8.11135
-8.12317
-8.13273
-8.13984
-8.14431
-8.14593
-8.14451
-8.13984
-8.13172
-8.11994
-8.10429
-8.08456
-8.06056
-8.03206
-7.99886
-7.96077
-7.91758
-7.86912
-7.81518
-7.75559
-7.69018
-7.61878
-7.54123
-7.45738
-7.36711
-7.27027
-7.16675
-7.05646
-6.9393
-6.81519
-6.68408
-6.54593
-6.4007
-6.24837
-6.08894
-5.9224
-5.74878
-5.56812
-5.38049
-5.18594
-4.98457
-4.77648
-4.5618
-4.34066
-4.11322
-3.87965
-3.64013
-3.39486
-3.14405
-2.88793
-2.62674
-2.36073
-2.09016
-1.81531
-1.53647
-1.25393
-0.968
-0.679004
-0.387244
-0.0930327
0.20328
0.501346
0.800851
1.10149
1.40293
1.70478
2.00672
2.30842
2.60954
2.90976
3.20877
3.50623
3.80185
4.09533
4.38638
4.67472
4.96007
5.24218
5.52081
5.79572
6.0667
6.33354
6.59604
6.85403
7.10735
7.35584
7.59936
7.83781
8.07105
8.29899
8.52154
8.73861
8.95013
9.15604
9.35634
9.551
9.73997
9.92322
10.1008
10.2726
10.4388
10.5995
10.7548
10.9049
11.0505
11.1884
11.3316
11.4214
-7.04657
-7.04944
-7.05416
-7.0583
-7.06134
-7.06365
-7.06548
-7.06695
-7.0682
-7.06934
-7.07047
-7.07166
-7.07301
-7.07458
-7.07643
-7.07862
-7.0812
-7.08424
-7.08777
-7.09185
-7.09652
-7.10184
-7.10784
-7.11456
-7.12203
-7.13028
-7.13934
-7.14921
-7.15991
-7.17146
-7.18384
-7.19706
-7.21112
-7.22601
-7.24172
-7.25824
-7.27555
-7.29365
-7.31251
-7.33211
-7.35243
-7.37346
-7.39516
-7.41752
-7.4405
-7.46407
-7.48821
-7.51287
-7.53802
-7.56361
-7.58961
-7.61597
-7.64264
-7.66957
-7.69669
-7.72395
-7.75128
-7.77861
-7.80585
-7.83293
-7.85975
-7.88621
-7.91222
-7.93765
-7.96239
-7.98632
-8.0093
-8.03118
-8.05184
-8.0711
-8.0888
-8.10479
-8.11889
-8.13091
-8.14067
-8.14799
-8.15266
-8.1545
-8.15329
-8.14884
-8.14093
-8.12936
-8.11392
-8.09441
-8.07061
-8.04231
-8.00932
-7.97143
-7.92845
-7.88018
-7.82644
-7.76705
-7.70184
-7.63063
-7.55328
-7.46964
-7.37956
-7.28293
-7.17964
-7.06956
-6.95263
-6.82876
-6.69789
-6.55998
-6.41499
-6.2629
-6.10371
-5.93742
-5.76406
-5.58366
-5.39628
-5.202
-5.0009
-4.79309
-4.57869
-4.35784
-4.13069
-3.89741
-3.65819
-3.41322
-3.16271
-2.90689
-2.646
-2.38029
-2.11002
-1.83547
-1.55693
-1.27468
-0.989044
-0.70033
-0.408842
-0.114909
0.181122
0.478918
0.778175
1.07859
1.3798
1.68144
1.98319
2.2847
2.58565
2.88572
3.18458
3.48193
3.77745
4.07083
4.36181
4.65009
4.93541
5.21751
5.49614
5.77108
6.0421
6.30899
6.57157
6.82964
7.08306
7.33167
7.57532
7.8139
8.04729
8.27538
8.49809
8.71532
8.927
9.13308
9.33354
9.52834
9.71745
9.90085
10.0785
10.2505
10.4167
10.5774
10.7325
10.882
11.0266
11.1623
11.3031
11.3846
-7.04111
-7.04438
-7.04985
-7.05471
-7.05831
-7.06108
-7.06331
-7.06517
-7.06679
-7.0683
-7.0698
-7.07138
-7.07314
-7.07514
-7.07745
-7.08012
-7.0832
-7.08675
-7.09081
-7.09543
-7.10065
-7.10651
-7.11304
-7.12027
-7.12823
-7.13694
-7.14642
-7.15668
-7.16773
-7.17958
-7.19223
-7.20567
-7.21992
-7.23495
-7.25076
-7.26734
-7.28469
-7.30278
-7.32161
-7.34117
-7.36142
-7.38237
-7.40397
-7.42622
-7.44909
-7.47255
-7.49657
-7.52112
-7.54617
-7.57167
-7.59759
-7.62388
-7.6505
-7.67739
-7.70449
-7.73175
-7.7591
-7.78647
-7.81377
-7.84092
-7.86783
-7.89441
-7.92054
-7.94611
-7.971
-7.99509
-8.01824
-8.0403
-8.06113
-8.08058
-8.09848
-8.11465
-8.12894
-8.14115
-8.15109
-8.15859
-8.16344
-8.16544
-8.16439
-8.16009
-8.15233
-8.14089
-8.12558
-8.10618
-8.08249
-8.0543
-8.0214
-7.98359
-7.94068
-7.89248
-7.83881
-7.77948
-7.71431
-7.64316
-7.56586
-7.48226
-7.39223
-7.29565
-7.1924
-7.08239
-6.96551
-6.84171
-6.7109
-6.57306
-6.42815
-6.27614
-6.11702
-5.95082
-5.77754
-5.59724
-5.40996
-5.21579
-5.01481
-4.80712
-4.59285
-4.37214
-4.14514
-3.91202
-3.67296
-3.42816
-3.17783
-2.92219
-2.66149
-2.39597
-2.1259
-1.85155
-1.57321
-1.29117
-1.00574
-0.717226
-0.425943
-0.132228
0.163584
0.461171
0.76023
1.06045
1.36148
1.66294
1.96452
2.26586
2.56666
2.86658
3.1653
3.46252
3.75792
4.05121
4.3421
4.63032
4.91558
5.19764
5.47624
5.75117
6.02218
6.28909
6.55168
6.8098
7.06326
7.31193
7.55565
7.79431
8.02778
8.25597
8.47877
8.69611
8.9079
9.11409
9.31466
9.50956
9.69876
9.88223
10.06
10.2319
10.3981
10.5586
10.7134
10.8622
11.0056
11.1392
11.2778
11.3521
-7.0375
-7.04103
-7.04694
-7.05232
-7.0564
-7.05958
-7.06219
-7.06441
-7.06639
-7.06826
-7.07013
-7.0721
-7.07425
-7.07666
-7.07939
-7.08249
-7.08602
-7.09003
-7.09455
-7.09963
-7.10531
-7.11161
-7.11858
-7.12623
-7.13458
-7.14366
-7.15348
-7.16405
-7.17537
-7.18747
-7.20032
-7.21394
-7.22833
-7.24348
-7.25938
-7.27603
-7.29342
-7.31154
-7.33037
-7.34992
-7.37016
-7.39108
-7.41266
-7.43487
-7.45771
-7.48114
-7.50514
-7.52968
-7.55471
-7.58021
-7.60614
-7.63246
-7.65911
-7.68605
-7.71323
-7.74057
-7.76802
-7.7955
-7.82293
-7.85022
-7.87729
-7.90403
-7.93033
-7.95608
-7.98116
-8.00543
-8.02877
-8.05103
-8.07205
-8.09168
-8.10975
-8.1261
-8.14055
-8.15291
-8.163
-8.17063
-8.1756
-8.1777
-8.17675
-8.17252
-8.16482
-8.15343
-8.13815
-8.11877
-8.09508
-8.06688
-8.03396
-7.99612
-7.95316
-7.90491
-7.85117
-7.79177
-7.72653
-7.6553
-7.57791
-7.49423
-7.40411
-7.30745
-7.20412
-7.09402
-6.97707
-6.85319
-6.72232
-6.58441
-6.43944
-6.28737
-6.12821
-5.96197
-5.78866
-5.60834
-5.42105
-5.22687
-5.0259
-4.81823
-4.604
-4.38333
-4.15638
-3.92333
-3.68434
-3.43963
-3.1894
-2.93387
-2.67328
-2.40789
-2.13796
-1.86375
-1.58556
-1.30368
-1.0184
-0.730053
-0.438945
-0.145417
0.15021
0.447615
0.746495
1.04654
1.34739
1.64867
1.95007
2.25124
2.55187
2.85164
3.15021
3.44729
3.74257
4.03574
4.32652
4.61464
4.89981
5.1818
5.46034
5.7352
6.00618
6.27305
6.53563
6.79373
7.04719
7.29587
7.53961
7.77829
8.0118
8.24003
8.46289
8.68028
8.89214
9.0984
9.29903
9.49399
9.68323
9.86673
10.0445
10.2164
10.3825
10.5427
10.697
10.845
10.9872
11.1187
11.2553
11.3234
-7.03597
-7.03958
-7.04566
-7.05135
-7.05577
-7.05928
-7.06221
-7.06475
-7.06704
-7.06922
-7.07142
-7.07372
-7.07622
-7.07897
-7.08206
-7.08552
-7.08942
-7.0938
-7.09869
-7.10414
-7.11018
-7.11683
-7.12412
-7.13208
-7.14073
-7.15007
-7.16014
-7.17093
-7.18245
-7.19471
-7.20772
-7.22147
-7.23597
-7.25121
-7.26719
-7.28391
-7.30135
-7.31951
-7.33839
-7.35797
-7.37824
-7.39919
-7.4208
-7.44305
-7.46593
-7.48941
-7.51346
-7.53806
-7.56317
-7.58875
-7.61477
-7.64119
-7.66796
-7.69503
-7.72234
-7.74983
-7.77744
-7.80509
-7.8327
-7.86018
-7.88744
-7.91437
-7.94087
-7.96682
-7.99209
-8.01655
-8.04008
-8.06251
-8.08369
-8.10348
-8.12169
-8.13817
-8.15272
-8.16518
-8.17534
-8.18303
-8.18803
-8.19016
-8.1892
-8.18496
-8.17722
-8.16578
-8.15042
-8.13095
-8.10716
-8.07883
-8.04577
-8.00778
-7.96467
-7.91625
-7.86233
-7.80274
-7.73731
-7.66588
-7.58829
-7.50441
-7.4141
-7.31724
-7.21372
-7.10343
-6.9863
-6.86224
-6.73121
-6.59314
-6.44801
-6.2958
-6.13651
-5.97014
-5.79672
-5.6163
-5.42893
-5.23468
-5.03365
-4.82593
-4.61167
-4.39099
-4.16405
-3.93101
-3.69206
-3.44739
-3.19721
-2.94176
-2.68126
-2.41597
-2.14615
-1.87206
-1.59401
-1.31227
-1.02715
-0.738961
-0.448036
-0.154695
0.140744
0.437957
0.736649
1.03651
1.33716
1.63825
1.93944
2.24043
2.54087
2.84045
3.13885
3.43576
3.73087
4.02389
4.31453
4.60251
4.88756
5.16942
5.44786
5.72263
5.99351
6.26031
6.52282
6.78087
7.03429
7.28292
7.52664
7.7653
7.9988
8.22703
8.44989
8.6673
8.87918
9.08547
9.28613
9.4811
9.67036
9.85385
10.0315
10.2033
10.3693
10.5291
10.6829
10.83
10.9709
11.1005
11.2352
11.2981
-7.03649
-7.04004
-7.04606
-7.05185
-7.05646
-7.0602
-7.06335
-7.06612
-7.06865
-7.07108
-7.07353
-7.0761
-7.07886
-7.08189
-7.08525
-7.08899
-7.09316
-7.0978
-7.10296
-7.10866
-7.11493
-7.12182
-7.12933
-7.13749
-7.14632
-7.15584
-7.16605
-7.17699
-7.18864
-7.20102
-7.21413
-7.22798
-7.24256
-7.25788
-7.27393
-7.29071
-7.30822
-7.32645
-7.3454
-7.36505
-7.3854
-7.40643
-7.42812
-7.45047
-7.47345
-7.49702
-7.52118
-7.54589
-7.57113
-7.59686
-7.62304
-7.64962
-7.67656
-7.70381
-7.73131
-7.75899
-7.78679
-7.81464
-7.84245
-7.87012
-7.89758
-7.9247
-7.95138
-7.97751
-8.00294
-8.02756
-8.05122
-8.07377
-8.09506
-8.11493
-8.13321
-8.14973
-8.16431
-8.17676
-8.18691
-8.19455
-8.19948
-8.20152
-8.20046
-8.19608
-8.18819
-8.17658
-8.16103
-8.14136
-8.11734
-8.08878
-8.05547
-8.01722
-7.97384
-7.92514
-7.87093
-7.81106
-7.74534
-7.67361
-7.59574
-7.51157
-7.42098
-7.32384
-7.22004
-7.1095
-6.99211
-6.86781
-6.73654
-6.59825
-6.45291
-6.3005
-6.14102
-5.97449
-5.80091
-5.62035
-5.43286
-5.23851
-5.03739
-4.82961
-4.6153
-4.39459
-4.16764
-3.9346
-3.69568
-3.45106
-3.20095
-2.94558
-2.68518
-2.42
-2.15031
-1.87637
-1.59847
-1.3169
-1.03196
-0.743972
-0.453254
-0.160121
0.135102
0.43209
0.730568
1.0302
1.33061
1.63145
1.93241
2.23316
2.53337
2.83272
3.1309
3.42759
3.7225
4.01531
4.30576
4.59355
4.87842
5.16012
5.4384
5.71303
5.98378
6.25045
6.51285
6.7708
7.02412
7.27268
7.51632
7.75492
7.98837
8.21655
8.43938
8.65677
8.86864
9.07492
9.27557
9.47054
9.65977
9.84321
10.0208
10.1925
10.3581
10.5176
10.6708
10.817
10.9567
11.0844
11.2173
11.2759
-7.03888
-7.04227
-7.04804
-7.05375
-7.05842
-7.06224
-7.06551
-7.06841
-7.07109
-7.07368
-7.0763
-7.07903
-7.08196
-7.08516
-7.08869
-7.0926
-7.09693
-7.10173
-7.10702
-7.11286
-7.11927
-7.12627
-7.1339
-7.14217
-7.1511
-7.16071
-7.17102
-7.18203
-7.19375
-7.2062
-7.21937
-7.23328
-7.24792
-7.2633
-7.27942
-7.29627
-7.31385
-7.33217
-7.35121
-7.37096
-7.39141
-7.41254
-7.43435
-7.45681
-7.47991
-7.50363
-7.52793
-7.55281
-7.57822
-7.60413
-7.6305
-7.65729
-7.68443
-7.71188
-7.73957
-7.76744
-7.79542
-7.82345
-7.85142
-7.87926
-7.90687
-7.93413
-7.96094
-7.98716
-8.01269
-8.03737
-8.06107
-8.08364
-8.10493
-8.12477
-8.14299
-8.15943
-8.17391
-8.18624
-8.19623
-8.2037
-8.20844
-8.21026
-8.20896
-8.20432
-8.19616
-8.18425
-8.1684
-8.1484
-8.12405
-8.09514
-8.06148
-8.02287
-7.97912
-7.93006
-7.87548
-7.81524
-7.74915
-7.67706
-7.59883
-7.51432
-7.42339
-7.32593
-7.22181
-7.11096
-6.99328
-6.8687
-6.73717
-6.59863
-6.45307
-6.30045
-6.14078
-5.97407
-5.80035
-5.61966
-5.43205
-5.23761
-5.03642
-4.8286
-4.61426
-4.39356
-4.16662
-3.93363
-3.69477
-3.45023
-3.20022
-2.94497
-2.68472
-2.4197
-2.15019
-1.87644
-1.59874
-1.3174
-1.0327
-0.744968
-0.454507
-0.161636
0.133306
0.430012
0.728221
1.02756
1.32765
1.62819
1.92885
2.22929
2.52921
2.82827
3.12616
3.42258
3.71721
4.00976
4.29995
4.5875
4.87214
5.15362
5.43169
5.70612
5.97668
6.24318
6.50541
6.7632
7.01639
7.26481
7.50834
7.74684
7.98019
8.2083
8.43106
8.64839
8.86022
9.06647
9.26708
9.46201
9.65119
9.83455
10.012
10.1835
10.3489
10.508
10.6605
10.8058
10.9442
11.0702
11.2014
11.2565
-7.0429
-7.04605
-7.05147
-7.05695
-7.06152
-7.0653
-7.06856
-7.07148
-7.07419
-7.07683
-7.07949
-7.08228
-7.08527
-7.08853
-7.09211
-7.09606
-7.10044
-7.10528
-7.11063
-7.11651
-7.12295
-7.12999
-7.13764
-7.14594
-7.15489
-7.16452
-7.17484
-7.18587
-7.19761
-7.21008
-7.22328
-7.23722
-7.2519
-7.26733
-7.28351
-7.30043
-7.31809
-7.33648
-7.3556
-7.37544
-7.39599
-7.41724
-7.43917
-7.46176
-7.485
-7.50888
-7.53336
-7.55842
-7.58401
-7.61011
-7.63666
-7.66362
-7.69092
-7.71852
-7.74635
-7.77434
-7.80244
-7.83056
-7.85862
-7.88653
-7.91418
-7.94146
-7.96826
-7.99446
-8.01993
-8.04453
-8.06812
-8.09056
-8.11168
-8.13134
-8.14935
-8.16556
-8.17977
-8.19182
-8.20151
-8.20866
-8.21306
-8.21452
-8.21284
-8.20782
-8.19925
-8.18694
-8.17067
-8.15025
-8.12547
-8.09613
-8.06204
-8.023
-7.97883
-7.92933
-7.87434
-7.81368
-7.74719
-7.67472
-7.59612
-7.51124
-7.41996
-7.32215
-7.21772
-7.10657
-6.9886
-6.86376
-6.73198
-6.59322
-6.44745
-6.29465
-6.13483
-5.96798
-5.79414
-5.61336
-5.42569
-5.2312
-5.03
-4.82219
-4.60789
-4.38724
-4.16039
-3.92751
-3.68878
-3.44439
-3.19456
-2.93951
-2.67948
-2.41471
-2.14545
-1.87198
-1.59458
-1.31355
-1.02918
-0.741785
-0.451657
-0.159142
0.135425
0.431779
0.729635
1.02858
1.32827
1.62842
1.92869
2.22876
2.52829
2.82698
3.12451
3.42057
3.71485
4.00707
4.29693
4.58417
4.86851
5.1497
5.42749
5.70166
5.97198
6.23824
6.50025
6.75784
7.01084
7.25909
7.50245
7.74081
7.97403
8.20203
8.42469
8.64194
8.85369
9.05988
9.26044
9.45531
9.64442
9.82768
10.005
10.1763
10.3414
10.5
10.6518
10.7962
10.9333
11.0577
11.1872
11.2396
-7.0483
-7.05118
-7.05616
-7.0613
-7.06563
-7.06923
-7.07234
-7.07513
-7.07773
-7.08027
-7.08285
-7.08556
-7.08848
-7.09167
-7.09519
-7.0991
-7.10343
-7.10823
-7.11353
-7.11937
-7.12576
-7.13275
-7.14036
-7.14861
-7.15751
-7.1671
-7.17739
-7.18838
-7.20009
-7.21254
-7.22572
-7.23965
-7.25434
-7.26978
-7.28597
-7.30292
-7.32062
-7.33907
-7.35825
-7.37816
-7.3988
-7.42014
-7.44219
-7.46492
-7.4883
-7.51231
-7.53692
-7.5621
-7.5878
-7.61399
-7.64062
-7.66763
-7.69498
-7.72259
-7.75042
-7.77839
-7.80644
-7.8345
-7.86248
-7.89028
-7.91779
-7.9449
-7.97151
-7.99749
-8.02271
-8.04704
-8.07033
-8.09244
-8.11322
-8.1325
-8.15013
-8.16593
-8.17973
-8.19134
-8.20058
-8.20726
-8.2112
-8.21218
-8.21002
-8.20451
-8.19545
-8.18265
-8.16589
-8.14498
-8.11971
-8.08989
-8.05532
-8.01582
-7.97119
-7.92125
-7.86583
-7.80475
-7.73787
-7.66501
-7.58605
-7.50082
-7.40922
-7.31111
-7.2064
-7.09498
-6.97678
-6.85173
-6.71976
-6.58084
-6.43493
-6.28202
-6.12211
-5.9552
-5.78134
-5.60055
-5.4129
-5.21847
-5.01735
-4.80965
-4.59548
-4.375
-4.14834
-3.91567
-3.67718
-3.43306
-3.18352
-2.92879
-2.66909
-2.40467
-2.13579
-1.86271
-1.58573
-1.30513
-1.0212
-0.734233
-0.444561
-0.152527
0.14156
0.437471
0.734855
1.03328
1.33247
1.63212
1.9319
2.23149
2.53055
2.82877
3.12584
3.42144
3.71529
4.00709
4.29654
4.58338
4.86734
5.14817
5.42562
5.69945
5.96946
6.23543
6.49717
6.7545
7.00725
7.25528
7.49845
7.73662
7.96968
8.19753
8.42006
8.6372
8.84887
9.05498
9.25546
9.45025
9.63927
9.82243
9.9996
10.1707
10.3354
10.4935
10.6447
10.7881
10.9241
11.047
11.1747
11.2252
-7.05511
-7.05771
-7.06221
-7.0669
-7.07085
-7.0741
-7.07687
-7.07934
-7.08165
-7.08392
-7.08626
-7.08875
-7.09148
-7.0945
-7.09787
-7.10163
-7.10583
-7.1105
-7.11567
-7.12138
-7.12765
-7.13451
-7.14198
-7.1501
-7.15888
-7.16834
-7.1785
-7.18937
-7.20098
-7.21332
-7.22642
-7.24026
-7.25487
-7.27024
-7.28637
-7.30327
-7.32093
-7.33936
-7.35855
-7.37847
-7.39912
-7.42049
-7.44255
-7.46528
-7.48866
-7.51265
-7.53721
-7.56232
-7.58793
-7.61401
-7.6405
-7.66735
-7.6945
-7.72191
-7.74951
-7.77724
-7.80504
-7.83281
-7.86048
-7.88792
-7.91506
-7.94177
-7.96795
-7.99347
-8.01821
-8.04203
-8.06481
-8.08639
-8.10662
-8.12535
-8.14242
-8.15765
-8.17087
-8.18191
-8.19057
-8.19668
-8.20004
-8.20045
-8.19773
-8.19166
-8.18205
-8.16871
-8.15142
-8.12999
-8.10423
-8.07392
-8.03888
-7.99893
-7.95386
-7.90352
-7.84771
-7.78628
-7.71906
-7.64588
-7.56662
-7.48112
-7.38927
-7.29094
-7.18603
-7.07445
-6.95611
-6.83095
-6.6989