/*--------------------------------*- C++ -*----------------------------------*\
| =========                 |                                                 |
| \\      /  F ield         | OpenFOAM: The Open Source CFD Toolbox           |
|  \\    /   O peration     | Version:  2212                                  |
|   \\  /    A nd           | Website:  www.openfoam.com                      |
|    \\/     M anipulation  |                                                 |
\*---------------------------------------------------------------------------*/
FoamFile
{
    version     2.0;
    format      ascii;
    arch        "LSB;label=32;scalar=64";
    class       surfaceScalarField;
    location    "282";
    object      phi;
}
// * * * * * * * * * * * * * * * * * * * * * * * * * * * * * * * * * * * * * //

dimensions      [0 3 -1 0 0 0 0];

oriented        oriented;

internalField   nonuniform List<scalar> 
24170
(
3.11512e-06
7.32901e-08
3.01296e-06
1.02152e-07
2.91749e-06
9.54717e-08
2.82631e-06
9.11798e-08
2.7403e-06
8.60058e-08
2.66278e-06
7.75215e-08
2.59488e-06
6.7901e-08
2.53596e-06
5.89167e-08
2.48492e-06
5.1046e-08
2.44065e-06
4.42664e-08
2.4022e-06
3.8448e-08
2.36876e-06
3.34438e-08
2.33965e-06
2.91069e-08
2.31433e-06
2.53158e-08
2.2925e-06
2.18291e-08
2.27367e-06
1.88288e-08
2.25764e-06
1.60355e-08
1.26684e-08
2.24497e-06
3.46865e-06
2.18855e-08
3.48678e-06
8.40255e-08
3.49345e-06
8.87959e-08
3.49232e-06
9.23085e-08
3.48432e-06
9.4e-08
3.47071e-06
9.11333e-08
3.45278e-06
8.58315e-08
3.43174e-06
7.99566e-08
3.40869e-06
7.40931e-08
3.38456e-06
6.83987e-08
3.36004e-06
6.29641e-08
3.33565e-06
5.7838e-08
3.31175e-06
5.3004e-08
3.28862e-06
4.84497e-08
3.26644e-06
4.40064e-08
3.24545e-06
3.9821e-08
3.2264e-06
3.50856e-08
2.88154e-08
3.21025e-06
3.66801e-06
1.63919e-08
3.68031e-06
7.17253e-08
3.69001e-06
7.91006e-08
3.70002e-06
8.22888e-08
3.70913e-06
8.48911e-08
3.71622e-06
8.40423e-08
3.72119e-06
8.08681e-08
3.72423e-06
7.69131e-08
3.72559e-06
7.27338e-08
3.72552e-06
6.84719e-08
3.72426e-06
6.42168e-08
3.72206e-06
6.00376e-08
3.71912e-06
5.59487e-08
3.71563e-06
5.19382e-08
3.71173e-06
4.79012e-08
3.70778e-06
4.37748e-08
3.7038e-06
3.90659e-08
3.31926e-08
3.69942e-06
3.92495e-06
1.68273e-08
3.93556e-06
6.11147e-08
3.94312e-06
7.15419e-08
3.95014e-06
7.52652e-08
3.95682e-06
7.82091e-08
3.96261e-06
7.82502e-08
3.96758e-06
7.59069e-08
3.9719e-06
7.25864e-08
3.97569e-06
6.89463e-08
3.97899e-06
6.51682e-08
3.98187e-06
6.13399e-08
3.98438e-06
5.75282e-08
3.98658e-06
5.37507e-08
3.98853e-06
4.99883e-08
3.99028e-06
4.61511e-08
3.99192e-06
4.21327e-08
3.9933e-06
3.76814e-08
3.24907e-08
3.994e-06
4.20772e-06
1.62309e-08
4.21609e-06
5.27497e-08
4.22226e-06
6.53718e-08
4.22774e-06
6.97813e-08
4.23319e-06
7.27666e-08
4.23821e-06
7.32229e-08
4.24274e-06
7.1381e-08
4.24686e-06
6.84642e-08
4.25065e-06
6.51565e-08
4.25415e-06
6.16659e-08
4.25741e-06
5.80826e-08
4.26046e-06
5.4473e-08
4.26336e-06
5.086e-08
4.26612e-06
4.72254e-08
4.26877e-06
4.34983e-08
4.27131e-06
3.95899e-08
4.27363e-06
3.53608e-08
3.06773e-08
4.27545e-06
4.51042e-06
1.48953e-08
4.51713e-06
4.60456e-08
4.52283e-06
5.96645e-08
4.52797e-06
6.46488e-08
4.5331e-06
6.763e-08
4.53796e-06
6.83655e-08
4.54239e-06
6.69536e-08
4.54644e-06
6.44131e-08
4.55019e-06
6.14059e-08
4.55369e-06
5.8162e-08
4.55699e-06
5.47821e-08
4.56013e-06
5.13362e-08
4.56313e-06
4.7855e-08
4.56603e-06
4.43277e-08
4.56882e-06
4.07061e-08
4.57148e-06
3.69283e-08
4.57392e-06
3.29235e-08
2.86607e-08
4.57594e-06
4.83415e-06
1.34675e-08
4.83991e-06
4.02855e-08
4.84554e-06
5.4029e-08
4.85066e-06
5.95318e-08
4.85572e-06
6.25704e-08
4.86055e-06
6.35379e-08
4.86499e-06
6.25095e-08
4.86908e-06
6.03222e-08
4.87289e-06
5.75997e-08
4.87646e-06
5.45894e-08
4.87984e-06
5.14041e-08
4.88306e-06
4.81186e-08
4.88614e-06
4.47721e-08
4.8891e-06
4.13644e-08
4.89194e-06
3.78699e-08
4.89461e-06
3.42535e-08
4.89704e-06
3.04931e-08
2.6614e-08
4.89909e-06
5.18096e-06
1.20921e-08
5.18606e-06
3.51866e-08
5.19158e-06
4.85014e-08
5.19672e-06
5.43994e-08
5.20177e-06
5.75132e-08
5.20665e-06
5.86611e-08
5.21119e-06
5.79664e-08
5.21541e-06
5.6109e-08
5.21934e-06
5.36625e-08
5.22305e-06
5.0885e-08
5.22655e-06
4.78995e-08
5.22988e-06
4.47853e-08
5.23307e-06
4.15901e-08
5.2361e-06
3.83258e-08
5.23899e-06
3.49869e-08
5.24168e-06
3.15625e-08
5.24411e-06
2.80607e-08
2.45299e-08
5.24619e-06
5.55268e-06
1.07537e-08
5.55721e-06
3.06567e-08
5.56252e-06
4.31866e-08
5.56764e-06
4.92808e-08
5.57271e-06
5.24394e-08
5.57767e-06
5.3709e-08
5.58234e-06
5.32942e-08
5.58671e-06
5.17406e-08
5.59081e-06
4.9561e-08
5.59468e-06
4.70174e-08
5.59834e-06
4.42397e-08
5.60181e-06
4.13117e-08
5.60511e-06
3.82882e-08
5.60824e-06
3.51934e-08
5.61119e-06
3.20382e-08
5.61392e-06
2.8831e-08
5.61639e-06
2.55964e-08
2.23918e-08
5.61853e-06
5.95107e-06
9.45843e-09
5.95511e-06
2.66158e-08
5.96017e-06
3.81329e-08
5.96524e-06
4.42073e-08
5.97032e-06
4.73611e-08
5.97533e-06
4.86976e-08
5.98012e-06
4.85045e-08
5.98464e-06
4.72209e-08
5.98891e-06
4.52931e-08
5.99294e-06
4.29798e-08
5.99677e-06
4.04155e-08
6.00039e-06
3.76871e-08
6.00383e-06
3.48548e-08
6.00707e-06
3.19533e-08
6.0101e-06
2.90061e-08
6.01289e-06
2.60353e-08
6.01542e-06
2.3073e-08
2.01784e-08
6.01763e-06
6.37804e-06
8.22687e-09
6.38168e-06
2.29824e-08
6.38646e-06
3.33516e-08
6.39146e-06
3.92071e-08
6.39652e-06
4.22973e-08
6.40157e-06
4.36528e-08
6.40645e-06
4.36224e-08
6.4111e-06
4.25693e-08
6.41552e-06
4.0874e-08
6.41972e-06
3.87835e-08
6.4237e-06
3.64345e-08
6.42747e-06
3.39156e-08
6.43103e-06
3.12903e-08
6.43439e-06
2.86015e-08
6.43751e-06
2.58812e-08
6.44039e-06
2.31596e-08
6.44299e-06
2.04716e-08
1.78733e-08
6.44529e-06
5.74182e-06
7.2376e-09
5.74463e-06
2.01813e-08
5.74846e-06
2.95201e-08
5.75261e-06
3.50523e-08
5.75687e-06
3.80391e-08
5.76114e-06
3.93789e-08
5.76532e-06
3.94426e-08
5.76934e-06
3.8552e-08
5.77318e-06
3.70371e-08
5.77683e-06
3.51282e-08
5.78031e-06
3.2961e-08
5.7836e-06
3.06244e-08
5.7867e-06
2.81836e-08
5.78962e-06
2.56857e-08
5.79233e-06
2.31674e-08
5.79483e-06
2.06625e-08
5.7971e-06
1.82053e-08
1.58496e-08
5.79912e-06
6.99922e-06
6.17646e-09
7.00219e-06
1.72054e-08
7.00635e-06
2.53603e-08
7.011e-06
3.04092e-08
7.01583e-06
3.32024e-08
7.02073e-06
3.4479e-08
7.02557e-06
3.46074e-08
7.03025e-06
3.38686e-08
7.03475e-06
3.25401e-08
7.03905e-06
3.08303e-08
7.04314e-06
2.887e-08
7.04701e-06
2.67467e-08
7.05067e-06
2.45256e-08
7.0541e-06
2.22561e-08
7.05729e-06
1.99774e-08
7.06023e-06
1.77247e-08
7.06291e-06
1.55297e-08
1.34421e-08
7.06531e-06
8.53197e-06
5.05247e-09
8.53509e-06
1.40825e-08
8.53955e-06
2.09025e-08
8.54467e-06
2.52883e-08
8.5501e-06
2.77714e-08
8.55566e-06
2.89182e-08
8.56121e-06
2.90662e-08
8.56662e-06
2.8456e-08
8.57185e-06
2.73129e-08
8.57686e-06
2.58164e-08
8.58164e-06
2.4088e-08
8.58618e-06
2.22107e-08
8.59046e-06
2.02471e-08
8.59447e-06
1.82459e-08
8.5982e-06
1.62461e-08
8.60164e-06
1.42818e-08
8.60479e-06
1.23806e-08
1.05866e-08
8.60764e-06
1.04004e-05
3.87697e-09
1.04036e-05
1.08342e-08
1.04084e-05
1.61718e-08
1.0414e-05
1.97037e-08
1.042e-05
2.17359e-08
1.04262e-05
2.26655e-08
1.04325e-05
2.2772e-08
1.04387e-05
2.22534e-08
1.04448e-05
2.12845e-08
1.04506e-05
2.00106e-08
1.04561e-05
1.85368e-08
1.04614e-05
1.69378e-08
1.04664e-05
1.52697e-08
1.0471e-05
1.35773e-08
1.04754e-05
1.18962e-08
1.04794e-05
1.02565e-08
1.04831e-05
8.68064e-09
7.20616e-09
1.04865e-05
1.2678e-05
2.65753e-09
1.26814e-05
7.4585e-09
1.26864e-05
1.11704e-08
1.26924e-05
1.36561e-08
1.26991e-05
1.50763e-08
1.27061e-05
1.56795e-08
1.27132e-05
1.56685e-08
1.27202e-05
1.51917e-08
1.27272e-05
1.43752e-08
1.27338e-05
1.33256e-08
1.27403e-05
1.21251e-08
1.27464e-05
1.08339e-08
1.27521e-05
9.49782e-09
1.27576e-05
8.15327e-09
1.27626e-05
6.82929e-09
1.27673e-05
5.54979e-09
1.27717e-05
4.33112e-09
3.20363e-09
1.27757e-05
1.54545e-05
1.38577e-09
1.5458e-05
3.91239e-09
1.54633e-05
5.84339e-09
1.54699e-05
7.08983e-09
1.54772e-05
7.72391e-09
1.5485e-05
7.87444e-09
1.54931e-05
7.65801e-09
1.55011e-05
7.16474e-09
1.5509e-05
6.47073e-09
1.55167e-05
5.64132e-09
1.55241e-05
4.72858e-09
1.55311e-05
3.77202e-09
1.55378e-05
2.80209e-09
1.55441e-05
1.84298e-09
1.55501e-05
9.13922e-10
1.55556e-05
3.05203e-11
1.55607e-05
-7.97762e-10
-1.54817e-09
1.55655e-05
1.8839e-05
2.25165e-11
1.88428e-05
7.16449e-11
1.88487e-05
1.40076e-11
1.8856e-05
-1.91468e-10
1.88642e-05
-5.26531e-10
1.8873e-05
-9.62284e-10
1.88822e-05
-1.4744e-09
1.88914e-05
-2.04068e-09
1.89005e-05
-2.63881e-09
1.89094e-05
-3.24917e-09
1.8918e-05
-3.85627e-09
1.89262e-05
-4.44786e-09
1.8934e-05
-5.01388e-09
1.89414e-05
-5.54602e-09
1.89483e-05
-6.03769e-09
1.89549e-05
-6.48336e-09
1.89609e-05
-6.88113e-09
-7.2164e-09
1.89666e-05
2.29649e-05
-1.53337e-09
2.29693e-05
-4.3578e-09
2.29761e-05
-6.75305e-09
2.29846e-05
-8.69198e-09
2.29943e-05
-1.01916e-08
2.30046e-05
-1.13381e-08
2.30154e-05
-1.2221e-08
2.30262e-05
-1.28946e-08
2.3037e-05
-1.33957e-08
2.30475e-05
-1.37594e-08
2.30577e-05
-1.40165e-08
2.30674e-05
-1.4189e-08
2.30767e-05
-1.42919e-08
2.30855e-05
-1.43366e-08
2.30938e-05
-1.43314e-08
2.31016e-05
-1.42823e-08
2.31089e-05
-1.41957e-08
-1.40656e-08
2.31157e-05
1.68119e-05
-2.73678e-09
1.68153e-05
-7.76371e-09
1.68205e-05
-1.19723e-08
1.68271e-05
-1.52103e-08
1.68344e-05
-1.75214e-08
1.68422e-05
-1.91391e-08
1.68502e-05
-2.02572e-08
1.68583e-05
-2.09755e-08
1.68663e-05
-2.13718e-08
1.6874e-05
-2.15259e-08
1.68815e-05
-2.15036e-08
1.68887e-05
-2.13511e-08
1.68955e-05
-2.11018e-08
1.69019e-05
-2.07811e-08
1.6908e-05
-2.0408e-08
1.69137e-05
-1.9996e-08
1.69191e-05
-1.95562e-08
-1.90877e-08
1.69241e-05
1.46357e-05
-3.87087e-09
1.4639e-05
-1.10281e-08
1.4644e-05
-1.70166e-08
1.46502e-05
-2.14134e-08
1.46571e-05
-2.43628e-08
1.46643e-05
-2.63381e-08
1.46716e-05
-2.76146e-08
1.46789e-05
-2.83115e-08
1.46861e-05
-2.85559e-08
1.46931e-05
-2.84788e-08
1.46998e-05
-2.81758e-08
1.47061e-05
-2.77104e-08
1.47121e-05
-2.71305e-08
1.47178e-05
-2.64736e-08
1.47232e-05
-2.57675e-08
1.47282e-05
-2.50314e-08
1.4733e-05
-2.42802e-08
-2.3517e-08
1.47374e-05
1.27412e-05
-4.89608e-09
1.27444e-05
-1.42736e-08
1.27495e-05
-2.21382e-08
1.27556e-05
-2.74665e-08
1.2762e-05
-3.08329e-08
1.27688e-05
-3.30832e-08
1.27756e-05
-3.44627e-08
1.27824e-05
-3.50715e-08
1.2789e-05
-3.51108e-08
1.27952e-05
-3.47721e-08
1.28012e-05
-3.41742e-08
1.28069e-05
-3.33941e-08
1.28123e-05
-3.24924e-08
1.28173e-05
-3.15169e-08
1.28221e-05
-3.05012e-08
1.28265e-05
-2.94678e-08
1.28307e-05
-2.8432e-08
-2.73976e-08
1.28345e-05
1.10917e-05
-5.67869e-09
1.1095e-05
-1.75433e-08
1.11004e-05
-2.75443e-08
1.11064e-05
-3.34584e-08
1.11125e-05
-3.69895e-08
1.11189e-05
-3.94286e-08
1.11253e-05
-4.08346e-08
1.11315e-05
-4.12925e-08
1.11375e-05
-4.10986e-08
1.11432e-05
-4.04895e-08
1.11486e-05
-3.95942e-08
1.11537e-05
-3.85019e-08
1.11585e-05
-3.72875e-08
1.1163e-05
-3.60086e-08
1.11672e-05
-3.47039e-08
1.11711e-05
-3.3399e-08
1.11748e-05
-3.21124e-08
-3.08522e-08
1.11783e-05
9.65564e-06
-6.10498e-09
9.65905e-06
-2.09499e-08
9.66465e-06
-3.31461e-08
9.67045e-06
-3.92585e-08
9.67637e-06
-4.29119e-08
9.68244e-06
-4.54921e-08
9.68839e-06
-4.67882e-08
9.6941e-06
-4.69998e-08
9.69954e-06
-4.65413e-08
9.70471e-06
-4.56598e-08
9.70959e-06
-4.44757e-08
9.71418e-06
-4.30871e-08
9.71847e-06
-4.15807e-08
9.72248e-06
-4.00221e-08
9.72623e-06
-3.84534e-08
9.72973e-06
-3.6901e-08
9.733e-06
-3.5378e-08
-3.38784e-08
9.73602e-06
8.40494e-06
-5.69723e-09
8.40933e-06
-2.53309e-08
8.41475e-06
-3.85714e-08
8.41987e-06
-4.43759e-08
8.42545e-06
-4.84916e-08
8.43132e-06
-5.13642e-08
8.43705e-06
-5.25165e-08
8.44249e-06
-5.2438e-08
8.44763e-06
-5.16837e-08
8.45247e-06
-5.05025e-08
8.45701e-06
-4.90108e-08
8.46124e-06
-4.73177e-08
8.46518e-06
-4.55199e-08
8.46884e-06
-4.36883e-08
8.47226e-06
-4.18673e-08
8.47544e-06
-4.0086e-08
8.47843e-06
-3.83685e-08
-3.67248e-08
8.48128e-06
7.31365e-06
-2.06012e-09
7.32071e-06
-3.2395e-08
7.32652e-06
-4.43791e-08
7.33133e-06
-4.91907e-08
7.33672e-06
-5.38783e-08
7.34239e-06
-5.70336e-08
7.34793e-06
-5.80591e-08
7.35325e-06
-5.7757e-08
7.35832e-06
-5.67537e-08
7.3631e-06
-5.52818e-08
7.36756e-06
-5.34749e-08
7.37171e-06
-5.14634e-08
7.37555e-06
-4.93601e-08
7.3791e-06
-4.72408e-08
7.38239e-06
-4.51553e-08
7.38544e-06
-4.31334e-08
7.38825e-06
-4.11857e-08
-3.92613e-08
7.39079e-06
6.36047e-06
7.53667e-09
6.3703e-06
-4.22263e-08
6.37819e-06
-5.22683e-08
6.38526e-06
-5.62601e-08
6.39239e-06
-6.10062e-08
6.39901e-06
-6.36543e-08
6.405e-06
-6.40551e-08
6.41056e-06
-6.33125e-08
6.41577e-06
-6.19617e-08
6.42062e-06
-6.01376e-08
6.42511e-06
-5.7966e-08
6.42924e-06
-5.55884e-08
6.43301e-06
-5.31331e-08
6.43645e-06
-5.06771e-08
6.43957e-06
-4.82783e-08
6.44241e-06
-4.59778e-08
6.44503e-06
-4.38069e-08
-4.1793e-08
6.44757e-06
5.53917e-06
1.38306e-08
5.54752e-06
-5.05791e-08
5.55587e-06
-6.06151e-08
5.56613e-06
-6.65177e-08
5.57733e-06
-7.22111e-08
5.58783e-06
-7.41553e-08
5.59705e-06
-7.32776e-08
5.60502e-06
-7.12765e-08
5.61179e-06
-6.87372e-08
5.61746e-06
-6.58e-08
5.62208e-06
-6.25885e-08
5.62575e-06
-5.92576e-08
5.62856e-06
-5.59427e-08
5.6306e-06
-5.27183e-08
5.63196e-06
-4.96361e-08
5.63274e-06
-4.67652e-08
5.63305e-06
-4.41155e-08
-4.17799e-08
5.63304e-06
4.87157e-06
-3.01344e-08
4.88648e-06
-6.54849e-08
4.89722e-06
-7.13579e-08
4.906e-06
-7.52957e-08
4.91304e-06
-7.92593e-08
4.91733e-06
-7.84386e-08
4.91816e-06
-7.4114e-08
4.91544e-06
-6.85477e-08
4.90945e-06
-6.27561e-08
4.90073e-06
-5.70806e-08
4.88984e-06
-5.16918e-08
4.87727e-06
-4.6689e-08
4.86348e-06
-4.21539e-08
4.84884e-06
-3.80786e-08
4.83365e-06
-3.44492e-08
4.81818e-06
-3.12892e-08
4.80268e-06
-2.86137e-08
-2.69183e-08
4.78781e-06
4.17254e-06
4.10706e-06
4.0357e-06
3.9604e-06
3.88114e-06
3.80271e-06
3.72859e-06
3.66004e-06
3.59729e-06
3.54021e-06
3.48851e-06
3.44183e-06
3.39967e-06
3.36159e-06
3.32714e-06
3.29585e-06
3.26724e-06
3.24032e-06
5.85326e-09
-5.85626e-09
1.77023e-08
-1.18533e-08
3.14517e-08
-1.37538e-08
4.47409e-08
-1.32926e-08
5.62103e-08
-1.14734e-08
6.51943e-08
-8.98733e-09
7.14685e-08
-6.27827e-09
7.50663e-08
-3.60113e-09
7.61586e-08
-1.09665e-09
7.50274e-08
1.12778e-09
7.20429e-08
2.97982e-09
6.75916e-08
4.44777e-09
6.19808e-08
5.60581e-09
5.54199e-08
6.55713e-09
4.80067e-08
7.40782e-09
3.97535e-08
8.24904e-09
3.06038e-08
9.14388e-09
2.04694e-08
1.01299e-08
9.25105e-09
1.1212e-08
-3.1553e-09
1.24017e-08
-1.69762e-08
1.38146e-08
-3.24193e-08
1.54389e-08
-4.96191e-08
1.71939e-08
-6.87299e-08
1.91069e-08
-8.9911e-08
2.11752e-08
-1.13294e-07
2.33788e-08
-1.38986e-07
2.56861e-08
-1.67047e-07
2.80563e-08
-1.97494e-07
3.04411e-08
-2.30285e-07
3.27859e-08
-2.65323e-07
3.50318e-08
-3.02462e-07
3.71345e-08
-3.41529e-07
3.90619e-08
-3.82325e-07
4.07906e-08
-4.24634e-07
4.23048e-08
-4.68231e-07
4.35923e-08
-5.12886e-07
4.46506e-08
-5.58376e-07
4.54864e-08
-6.04492e-07
4.61122e-08
-6.51041e-07
4.65449e-08
-6.97848e-07
4.68042e-08
-7.44763e-07
4.69114e-08
-7.91654e-07
4.68886e-08
-8.38414e-07
4.67571e-08
-8.84954e-07
4.65378e-08
-9.3121e-07
4.62532e-08
-9.77145e-07
4.59323e-08
-1.02276e-06
4.56108e-08
-1.06807e-06
4.53086e-08
-1.11309e-06
4.50223e-08
-1.15784e-06
4.47478e-08
-1.20233e-06
4.44833e-08
-1.24656e-06
4.42269e-08
-1.29054e-06
4.39769e-08
-1.33428e-06
4.37316e-08
-1.37777e-06
4.34888e-08
-1.42102e-06
4.32463e-08
-1.46403e-06
4.30014e-08
-1.50678e-06
4.27516e-08
-1.54928e-06
4.24939e-08
-1.59151e-06
4.22253e-08
-1.63345e-06
4.19428e-08
-1.6751e-06
4.16435e-08
-1.71643e-06
4.13243e-08
-1.75742e-06
4.09825e-08
-1.79803e-06
4.06152e-08
-1.83826e-06
4.022e-08
-1.87806e-06
3.97942e-08
-1.91739e-06
3.93359e-08
-1.95624e-06
3.88425e-08
-1.99455e-06
3.83125e-08
-2.0323e-06
3.77439e-08
-2.06944e-06
3.71353e-08
-2.10593e-06
3.64852e-08
-2.14172e-06
3.57926e-08
-2.17678e-06
3.50563e-08
-2.21106e-06
3.42758e-08
-2.24452e-06
3.34503e-08
-2.2771e-06
3.25796e-08
-2.30877e-06
3.16632e-08
-2.33947e-06
3.07013e-08
-2.36917e-06
2.96936e-08
-2.39781e-06
2.86407e-08
-2.42536e-06
2.75424e-08
-2.45176e-06
2.63995e-08
-2.47698e-06
2.52121e-08
-2.50096e-06
2.39813e-08
-2.52367e-06
2.27072e-08
-2.54506e-06
2.13905e-08
-2.56509e-06
2.00314e-08
-2.58372e-06
1.86294e-08
-2.6009e-06
1.7184e-08
-2.6166e-06
1.5694e-08
-2.63076e-06
1.41572e-08
-2.64333e-06
1.25695e-08
-2.65426e-06
1.09257e-08
-2.66348e-06
9.21898e-09
-2.67093e-06
7.43931e-09
-2.6765e-06
5.57026e-09
-2.6801e-06
3.59455e-09
-2.68164e-06
1.53071e-09
-2.68114e-06
-5.02654e-10
-2.67881e-06
-2.33646e-09
-2.67481e-06
-4.00932e-09
-2.66917e-06
-5.65082e-09
-2.6619e-06
-7.28597e-09
-2.65298e-06
-8.92476e-09
-2.64242e-06
-1.05689e-08
-2.63021e-06
-1.2217e-08
-2.61635e-06
-1.38682e-08
-2.60084e-06
-1.55198e-08
-2.58367e-06
-1.71706e-08
-2.56486e-06
-1.88179e-08
-2.5444e-06
-2.04602e-08
-2.52231e-06
-2.20947e-08
-2.49859e-06
-2.37203e-08
-2.47326e-06
-2.53338e-08
-2.44632e-06
-2.6934e-08
-2.4178e-06
-2.85182e-08
-2.38772e-06
-3.00853e-08
-2.35609e-06
-3.16327e-08
-2.32293e-06
-3.3159e-08
-2.28828e-06
-3.4661e-08
-2.25215e-06
-3.61371e-08
-2.21457e-06
-3.75839e-08
-2.17557e-06
-3.90004e-08
-2.13518e-06
-4.03836e-08
-2.09345e-06
-4.17331e-08
-2.0504e-06
-4.30465e-08
-2.00607e-06
-4.4324e-08
-1.96049e-06
-4.55639e-08
-1.91372e-06
-4.67658e-08
-1.86578e-06
-4.79269e-08
-1.81672e-06
-4.9049e-08
-1.76657e-06
-5.01258e-08
-1.71541e-06
-5.11514e-08
-1.66326e-06
-5.2131e-08
-1.61017e-06
-5.30674e-08
-1.5562e-06
-5.39552e-08
-1.50139e-06
-5.47916e-08
-1.4458e-06
-5.55766e-08
-1.38948e-06
-5.63099e-08
-1.33247e-06
-5.69913e-08
-1.27484e-06
-5.76201e-08
-1.21664e-06
-5.81964e-08
-1.15792e-06
-5.87199e-08
-1.09872e-06
-5.9191e-08
-1.03911e-06
-5.96094e-08
-9.79137e-07
-5.99759e-08
-9.18849e-07
-6.02906e-08
-8.58299e-07
-6.05548e-08
-7.97537e-07
-6.0769e-08
-7.36612e-07
-6.09346e-08
-6.7557e-07
-6.10526e-08
-6.14458e-07
-6.11248e-08
-5.5332e-07
-6.11525e-08
-4.92198e-07
-6.11377e-08
-4.31134e-07
-6.1082e-08
-3.70165e-07
-6.09872e-08
-3.09331e-07
-6.08535e-08
-2.48669e-07
-6.0683e-08
-1.88217e-07
-6.04741e-08
-1.28006e-07
-6.02332e-08
-6.80602e-08
-5.99686e-08
-8.47464e-09
-5.96086e-08
5.07747e-08
-5.92724e-08
1.09688e-07
-5.89359e-08
1.68151e-07
-5.84845e-08
2.26155e-07
-5.80242e-08
2.837e-07
-5.75662e-08
3.40777e-07
-5.70964e-08
3.97346e-07
-5.6589e-08
4.53329e-07
-5.60026e-08
5.08576e-07
-5.52651e-08
5.628e-07
-5.42418e-08
6.15429e-07
-5.26462e-08
6.65262e-07
-4.98483e-08
7.09318e-07
-4.40711e-08
7.40613e-07
-3.13081e-08
1.09404e-08
7.29662e-07
1.14042e-08
-1.72636e-08
2.33088e-08
-2.37619e-08
3.19543e-08
-2.24023e-08
3.75079e-08
-1.88483e-08
4.0536e-08
-1.45038e-08
4.14187e-08
-9.87195e-09
4.03803e-08
-5.24199e-09
3.75778e-08
-8.00547e-10
3.31397e-08
3.33929e-09
2.71489e-08
7.11655e-09
1.9615e-08
1.05114e-08
1.05147e-08
1.35461e-08
-1.72217e-10
1.62902e-08
-1.24656e-08
1.88484e-08
-2.6397e-08
2.13367e-08
-4.20115e-08
2.38614e-08
-5.93789e-08
2.65088e-08
-7.8588e-08
2.9337e-08
-9.97544e-08
3.23761e-08
-1.22997e-07
3.56423e-08
-1.48334e-07
3.91497e-08
-1.75788e-07
4.28914e-08
-2.05436e-07
4.6839e-08
-2.37284e-07
5.09537e-08
-2.7129e-07
5.51788e-08
-3.07356e-07
5.94424e-08
-3.45334e-07
6.36619e-08
-3.85032e-07
6.77518e-08
-4.26227e-07
7.16335e-08
-4.68689e-07
7.52453e-08
-5.12196e-07
7.85368e-08
-5.56528e-07
8.14635e-08
-6.01465e-07
8.39962e-08
-6.46799e-07
8.61221e-08
-6.9234e-07
8.78432e-08
-7.37919e-07
8.91695e-08
-7.83394e-07
9.01229e-08
-8.28647e-07
9.07372e-08
-8.73588e-07
9.10516e-08
-9.18152e-07
9.11072e-08
-9.62295e-07
9.09453e-08
-1.00599e-06
9.06061e-08
-1.04923e-06
9.01273e-08
-1.09202e-06
8.95435e-08
-1.13437e-06
8.88866e-08
-1.17631e-06
8.81865e-08
-1.21785e-06
8.74721e-08
-1.259e-06
8.67669e-08
-1.29978e-06
8.60824e-08
-1.34018e-06
8.54203e-08
-1.38021e-06
8.47796e-08
-1.41989e-06
8.41582e-08
-1.45922e-06
8.35529e-08
-1.4982e-06
8.296e-08
-1.53685e-06
8.2375e-08
-1.57515e-06
8.1793e-08
-1.61312e-06
8.12088e-08
-1.65074e-06
8.0617e-08
-1.688e-06
8.00122e-08
-1.7249e-06
7.93887e-08
-1.76142e-06
7.8741e-08
-1.79754e-06
7.80635e-08
-1.83325e-06
7.73509e-08
-1.86853e-06
7.6598e-08
-1.90335e-06
7.57999e-08
-1.93768e-06
7.4952e-08
-1.97152e-06
7.40499e-08
-2.00481e-06
7.30895e-08
-2.03755e-06
7.20671e-08
-2.06969e-06
7.09792e-08
-2.1012e-06
6.98228e-08
-2.13205e-06
6.85951e-08
-2.16221e-06
6.72937e-08
-2.19164e-06
6.59165e-08
-2.22032e-06
6.44617e-08
-2.24819e-06
6.29278e-08
-2.27523e-06
6.13139e-08
-2.3014e-06
5.9619e-08
-2.32667e-06
5.78427e-08
-2.35099e-06
5.59847e-08
-2.37434e-06
5.4045e-08
-2.39667e-06
5.20238e-08
-2.41795e-06
4.99217e-08
-2.43815e-06
4.7739e-08
-2.45723e-06
4.5477e-08
-2.47516e-06
4.31364e-08
-2.4919e-06
4.07186e-08
-2.50742e-06
3.82246e-08
-2.52168e-06
3.56557e-08
-2.53466e-06
3.30127e-08
-2.54633e-06
3.02965e-08
-2.55665e-06
2.75078e-08
-2.56561e-06
2.46475e-08
-2.57317e-06
2.17161e-08
-2.57931e-06
1.87141e-08
-2.58403e-06
1.56428e-08
-2.58732e-06
1.25043e-08
-2.58919e-06
9.30194e-09
-2.58966e-06
6.04424e-09
-2.58883e-06
2.75597e-09
-2.58679e-06
-5.16184e-10
-2.58356e-06
-3.73667e-09
-2.57897e-06
-6.9309e-09
-2.57285e-06
-1.01361e-08
-2.56515e-06
-1.33556e-08
-2.55586e-06
-1.6589e-08
-2.54495e-06
-1.98369e-08
-2.53243e-06
-2.30971e-08
-2.51828e-06
-2.63665e-08
-2.50251e-06
-2.96417e-08
-2.48512e-06
-3.29184e-08
-2.4661e-06
-3.61929e-08
-2.44546e-06
-3.94608e-08
-2.4232e-06
-4.27184e-08
-2.39934e-06
-4.5961e-08
-2.37388e-06
-4.9185e-08
-2.34682e-06
-5.23859e-08
-2.3182e-06
-5.55596e-08
-2.28801e-06
-5.87022e-08
-2.25629e-06
-6.18101e-08
-2.22305e-06
-6.48792e-08
-2.1883e-06
-6.79057e-08
-2.15208e-06
-7.08846e-08
-2.11441e-06
-7.38116e-08
-2.07531e-06
-7.66818e-08
-2.03482e-06
-7.94916e-08
-1.99297e-06
-8.22366e-08
-1.94979e-06
-8.49139e-08
-1.90531e-06
-8.75198e-08
-1.85958e-06
-9.00527e-08
-1.81263e-06
-9.25103e-08
-1.7645e-06
-9.48913e-08
-1.71522e-06
-9.71938e-08
-1.66485e-06
-9.9416e-08
-1.61342e-06
-1.01548e-07
-1.56098e-06
-1.03581e-07
-1.50758e-06
-1.05523e-07
-1.45326e-06
-1.07375e-07
-1.39807e-06
-1.09131e-07
-1.34207e-06
-1.10785e-07
-1.2853e-06
-1.12336e-07
-1.22782e-06
-1.13784e-07
-1.16968e-06
-1.15128e-07
-1.11092e-06
-1.16368e-07
-1.05161e-06
-1.17502e-07
-9.91802e-07
-1.1853e-07
-9.31538e-07
-1.19453e-07
-8.70875e-07
-1.20272e-07
-8.09867e-07
-1.20985e-07
-7.48563e-07
-1.21596e-07
-6.87017e-07
-1.22104e-07
-6.25277e-07
-1.22513e-07
-5.63392e-07
-1.22824e-07
-5.01411e-07
-1.2304e-07
-4.39379e-07
-1.23164e-07
-3.7734e-07
-1.23199e-07
-3.15338e-07
-1.23149e-07
-2.53411e-07
-1.23018e-07
-1.916e-07
-1.22808e-07
-1.29942e-07
-1.22523e-07
-6.84699e-08
-1.22166e-07
-7.21424e-09
-1.21741e-07
5.38031e-08
-1.21262e-07
1.1455e-07
-1.20727e-07
1.75041e-07
-1.20111e-07
2.3518e-07
-1.19422e-07
2.94876e-07
-1.18643e-07
3.54173e-07
-1.17793e-07
4.13065e-07
-1.16927e-07
4.71537e-07
-1.1605e-07
5.29566e-07
-1.15136e-07
5.87104e-07
-1.14138e-07
6.44065e-07
-1.12975e-07
7.00298e-07
-1.11508e-07
7.55522e-07
-1.09477e-07
8.09241e-07
-1.06375e-07
8.60456e-07
-1.01073e-07
9.0762e-07
-9.12442e-08
9.47261e-07
-7.09563e-08
-2.22137e-08
9.80408e-07
9.22693e-09
-2.64931e-08
1.50993e-08
-2.96372e-08
1.72225e-08
-2.45276e-08
1.66064e-08
-1.82337e-08
1.39233e-08
-1.18222e-08
9.56323e-09
-5.51311e-09
3.72499e-09
5.94877e-10
-3.50913e-09
6.43237e-09
-1.21269e-08
1.19557e-08
-2.2162e-08
1.71505e-08
-3.36827e-08
2.20307e-08
-4.67764e-08
2.66386e-08
-6.15335e-08
3.1046e-08
-7.80322e-08
3.53459e-08
-9.63356e-08
3.96389e-08
-1.16493e-07
4.40175e-08
-1.38541e-07
4.85555e-08
-1.62505e-07
5.33001e-08
-1.88401e-07
5.82709e-08
-2.16221e-07
6.34609e-08
-2.45915e-07
6.88422e-08
-2.77394e-07
7.43692e-08
-3.10536e-07
7.99796e-08
-3.4518e-07
8.55966e-08
-3.81136e-07
9.11335e-08
-4.18194e-07
9.6499e-08
-4.56138e-07
1.01604e-07
-4.94759e-07
1.06371e-07
-5.33862e-07
1.10735e-07
-5.73265e-07
1.14647e-07
-6.12806e-07
1.18076e-07
-6.52345e-07
1.21002e-07
-6.91773e-07
1.23422e-07
-7.30997e-07
1.25345e-07
-7.69949e-07
1.26794e-07
-8.0859e-07
1.27809e-07
-8.46905e-07
1.28436e-07
-8.84891e-07
1.28722e-07
-9.22555e-07
1.28714e-07
-9.5991e-07
1.2846e-07
-9.96972e-07
1.28006e-07
-1.03376e-06
1.27395e-07
-1.0703e-06
1.26664e-07
-1.10661e-06
1.2585e-07
-1.1427e-06
1.24981e-07
-1.1786e-06
1.24083e-07
-1.21431e-06
1.23178e-07
-1.24982e-06
1.22282e-07
-1.28514e-06
1.21403e-07
-1.32027e-06
1.20544e-07
-1.3552e-06
1.19705e-07
-1.38992e-06
1.18884e-07
-1.42445e-06
1.18076e-07
-1.45876e-06
1.17276e-07
-1.49287e-06
1.16479e-07
-1.52676e-06
1.15678e-07
-1.56042e-06
1.14866e-07
-1.59383e-06
1.14035e-07
-1.627e-06
1.13179e-07
-1.6599e-06
1.12289e-07
-1.69252e-06
1.11358e-07
-1.72484e-06
1.10379e-07
-1.75684e-06
1.09346e-07
-1.78849e-06
1.08249e-07
-1.81978e-06
1.07085e-07
-1.85067e-06
1.05845e-07
-1.88115e-06
1.04525e-07
-1.91118e-06
1.03118e-07
-1.94073e-06
1.01621e-07
-1.96978e-06
1.00027e-07
-1.9983e-06
9.83334e-08
-2.02624e-06
9.65359e-08
-2.05358e-06
9.46314e-08
-2.08028e-06
9.26169e-08
-2.10631e-06
9.049e-08
-2.13163e-06
8.82488e-08
-2.15621e-06
8.58918e-08
-2.18001e-06
8.34177e-08
-2.203e-06
8.0826e-08
-2.22513e-06
7.81162e-08
-2.24637e-06
7.52884e-08
-2.26669e-06
7.23429e-08
-2.28606e-06
6.92805e-08
-2.30442e-06
6.61022e-08
-2.32175e-06
6.28093e-08
-2.33802e-06
5.94034e-08
-2.35319e-06
5.58864e-08
-2.36723e-06
5.22604e-08
-2.3801e-06
4.85276e-08
-2.39178e-06
4.46903e-08
-2.40223e-06
4.07507e-08
-2.41144e-06
3.67118e-08
-2.41937e-06
3.25767e-08
-2.426e-06
2.83491e-08
-2.43132e-06
2.40336e-08
-2.43532e-06
1.9636e-08
-2.43798e-06
1.5164e-08
-2.43931e-06
1.06274e-08
-2.43931e-06
6.04014e-09
-2.43798e-06
1.42282e-09
-2.43529e-06
-3.20299e-09
-2.4312e-06
-7.83536e-09
-2.42563e-06
-1.24984e-08
-2.41857e-06
-1.72062e-08
-2.40998e-06
-2.19523e-08
-2.39984e-06
-2.67299e-08
-2.38815e-06
-3.15339e-08
-2.37489e-06
-3.63585e-08
-2.36006e-06
-4.1198e-08
-2.34366e-06
-4.60463e-08
-2.32569e-06
-5.08978e-08
-2.30613e-06
-5.5746e-08
-2.28501e-06
-6.0585e-08
-2.26232e-06
-6.54085e-08
-2.23808e-06
-7.02105e-08
-2.21228e-06
-7.49848e-08
-2.18494e-06
-7.97252e-08
-2.15607e-06
-8.44257e-08
-2.12569e-06
-8.90804e-08
-2.09382e-06
-9.36835e-08
-2.06047e-06
-9.82294e-08
-2.02567e-06
-1.02712e-07
-1.98943e-06
-1.07124e-07
-1.95178e-06
-1.1146e-07
-1.91276e-06
-1.15713e-07
-1.87237e-06
-1.19876e-07
-1.83066e-06
-1.23944e-07
-1.78766e-06
-1.27912e-07
-1.74341e-06
-1.31775e-07
-1.69793e-06
-1.35528e-07
-1.65127e-06
-1.39168e-07
-1.60346e-06
-1.42694e-07
-1.55455e-06
-1.46104e-07
-1.50456e-06
-1.49393e-07
-1.45356e-06
-1.52549e-07
-1.40157e-06
-1.55564e-07
-1.34864e-06
-1.5844e-07
-1.29483e-06
-1.6118e-07
-1.24018e-06
-1.63777e-07
-1.18474e-06
-1.66223e-07
-1.12855e-06
-1.68516e-07
-1.07167e-06
-1.70656e-07
-1.01416e-06
-1.72641e-07
-9.56054e-07
-1.74469e-07
-8.97413e-07
-1.7614e-07
-8.38287e-07
-1.77654e-07
-7.78729e-07
-1.79011e-07
-7.18789e-07
-1.80211e-07
-6.58519e-07
-1.81255e-07
-5.97971e-07
-1.82144e-07
-5.37194e-07
-1.82882e-07
-4.76238e-07
-1.83471e-07
-4.15151e-07
-1.83913e-07
-3.53979e-07
-1.84214e-07
-2.92769e-07
-1.84377e-07
-2.31562e-07
-1.84408e-07
-1.70402e-07
-1.84313e-07
-1.09326e-07
-1.84096e-07
-4.83723e-08
-1.83765e-07
1.2428e-08
-1.83326e-07
7.30403e-08
-1.82781e-07
1.33433e-07
-1.82137e-07
1.93572e-07
-1.81404e-07
2.53432e-07
-1.8059e-07
3.13009e-07
-1.79692e-07
3.72279e-07
-1.78694e-07
4.31215e-07
-1.77583e-07
4.89809e-07
-1.7639e-07
5.48038e-07
-1.75159e-07
6.05875e-07
-1.7389e-07
6.63287e-07
-1.72551e-07
7.20225e-07
-1.71078e-07
7.76602e-07
-1.69355e-07
8.32279e-07
-1.67188e-07
8.87014e-07
-1.64215e-07
9.40406e-07
-1.5977e-07
9.91826e-07
-1.52495e-07
1.04042e-06
-1.39844e-07
1.08567e-06
-1.16203e-07
-6.86264e-08
1.13208e-06
3.69071e-09
-3.0186e-08
2.66841e-09
-2.86174e-08
-9.78414e-10
-2.08825e-08
-6.39625e-09
-1.28171e-08
-1.32409e-08
-4.97869e-09
-2.13464e-08
2.59144e-09
-3.06482e-08
9.89572e-09
-4.11486e-08
1.69318e-08
-5.28944e-08
2.37005e-08
-6.59591e-08
3.02144e-08
-8.0432e-08
3.65025e-08
-9.64057e-08
4.26114e-08
-1.13965e-07
4.86043e-08
-1.33174e-07
5.45543e-08
-1.54072e-07
6.0535e-08
-1.76665e-07
6.66096e-08
-2.00932e-07
7.28217e-08
-2.26823e-07
7.919e-08
-2.54259e-07
8.57057e-08
-2.83133e-07
9.23342e-08
-3.1331e-07
9.90185e-08
-3.44628e-07
1.05687e-07
-3.76906e-07
1.12256e-07
-4.09951e-07
1.1864e-07
-4.43569e-07
1.24751e-07
-4.77579e-07
1.30508e-07
-5.11816e-07
1.3584e-07
-5.46138e-07
1.40692e-07
-5.80428e-07
1.45023e-07
-6.14591e-07
1.4881e-07
-6.48559e-07
1.52042e-07
-6.82282e-07
1.54723e-07
-7.15735e-07
1.56874e-07
-7.48914e-07
1.58523e-07
-7.81834e-07
1.59713e-07
-8.14516e-07
1.6049e-07
-8.46985e-07
1.60904e-07
-8.79269e-07
1.61005e-07
-9.11397e-07
1.60841e-07
-9.43394e-07
1.60457e-07
-9.75285e-07
1.59896e-07
-1.00709e-06
1.59198e-07
-1.03882e-06
1.58397e-07
-1.0705e-06
1.57524e-07
-1.10212e-06
1.56603e-07
-1.1337e-06
1.55656e-07
-1.16522e-06
1.54699e-07
-1.19668e-06
1.53744e-07
-1.22807e-06
1.52798e-07
-1.25939e-06
1.51864e-07
-1.29063e-06
1.50941e-07
-1.32178e-06
1.50027e-07
-1.35282e-06
1.49116e-07
-1.38375e-06
1.48205e-07
-1.41455e-06
1.47284e-07
-1.44522e-06
1.46347e-07
-1.47575e-06
1.45386e-07
-1.5061e-06
1.44392e-07
-1.53628e-06
1.43356e-07
-1.56626e-06
1.42269e-07
-1.59603e-06
1.41123e-07
-1.62556e-06
1.39908e-07
-1.65483e-06
1.38615e-07
-1.68382e-06
1.37238e-07
-1.7125e-06
1.35767e-07
-1.74086e-06
1.34195e-07
-1.76885e-06
1.32515e-07
-1.79645e-06
1.3072e-07
-1.82363e-06
1.28804e-07
-1.85037e-06
1.26762e-07
-1.87662e-06
1.24587e-07
-1.90237e-06
1.22276e-07
-1.92756e-06
1.19824e-07
-1.95217e-06
1.17228e-07
-1.97617e-06
1.14485e-07
-1.99951e-06
1.11591e-07
-2.02217e-06
1.08547e-07
-2.0441e-06
1.05349e-07
-2.06527e-06
1.01997e-07
-2.08565e-06
9.84907e-08
-2.10519e-06
9.48303e-08
-2.12386e-06
9.1016e-08
-2.14163e-06
8.70491e-08
-2.15846e-06
8.29309e-08
-2.17432e-06
7.86633e-08
-2.18917e-06
7.42486e-08
-2.20297e-06
6.96894e-08
-2.2157e-06
6.49889e-08
-2.22732e-06
6.01502e-08
-2.23781e-06
5.51771e-08
-2.24713e-06
5.00735e-08
-2.25526e-06
4.4844e-08
-2.26218e-06
3.94938e-08
-2.26786e-06
3.40289e-08
-2.27229e-06
2.84562e-08
-2.27544e-06
2.27839e-08
-2.2773e-06
1.70215e-08
-2.27785e-06
1.118e-08
-2.27709e-06
5.27189e-09
-2.27498e-06
-6.89087e-10
-2.27149e-06
-6.69346e-09
-2.26658e-06
-1.27438e-08
-2.26024e-06
-1.88519e-08
-2.25242e-06
-2.50211e-08
-2.24314e-06
-3.12443e-08
-2.23236e-06
-3.75126e-08
-2.22008e-06
-4.38179e-08
-2.20629e-06