/*--------------------------------*- C++ -*----------------------------------*\
| =========                 |                                                 |
| \\      /  F ield         | OpenFOAM: The Open Source CFD Toolbox           |
|  \\    /   O peration     | Version:  2212                                  |
|   \\  /    A nd           | Website:  www.openfoam.com                      |
|    \\/     M anipulation  |                                                 |
\*---------------------------------------------------------------------------*/
FoamFile
{
    version     2.0;
    format      ascii;
    arch        "LSB;label=32;scalar=64";
    class       volVectorField;
    location    "282";
    object      U;
}
// * * * * * * * * * * * * * * * * * * * * * * * * * * * * * * * * * * * * * //

dimensions      [0 1 -1 0 0 0 0];

internalField   nonuniform List<vector> 
12225
(
(9.84118 -0.95637 0)
(9.59253 -0.887947 0)
(9.31755 -0.59449 0)
(9.0147 -0.370009 0)
(8.72576 -0.225974 0)
(8.46711 -0.137865 0)
(8.24 -0.084481 0)
(8.04169 -0.0516238 0)
(7.86971 -0.0312273 0)
(7.72067 -0.0185932 0)
(7.59152 -0.0106518 0)
(7.47919 -0.00571304 0)
(7.38147 -0.00271076 0)
(7.2964 -0.000998582 0)
(7.22228 -0.00011435 0)
(7.16012 -0.000484147 0)
(7.10034 0.00265258 0)
(7.07218 -0.0178482 0)
(10.0722 0.255857 0)
(10.1867 0.418358 0)
(10.2285 0.384144 0)
(10.2296 0.310412 0)
(10.2114 0.245689 0)
(10.1794 0.195444 0)
(10.1334 0.157687 0)
(10.0759 0.129679 0)
(10.0105 0.108833 0)
(9.94086 0.0931007 0)
(9.86925 0.080928 0)
(9.79743 0.0713169 0)
(9.72649 0.0635219 0)
(9.65756 0.0570688 0)
(9.59103 0.0513162 0)
(9.52785 0.046717 0)
(9.46863 0.0402448 0)
(9.41532 0.0403513 0)
(10.0032 0.0599587 0)
(10.0309 0.0482994 0)
(10.0614 0.0100095 0)
(10.0898 9.22838e-06 0)
(10.1151 0.00817718 0)
(10.1376 0.0194345 0)
(10.1547 0.0290255 0)
(10.1657 0.0365115 0)
(10.1715 0.0420722 0)
(10.173 0.0459279 0)
(10.1711 0.0483923 0)
(10.1663 0.0497611 0)
(10.1591 0.0502712 0)
(10.1502 0.0500728 0)
(10.1401 0.0492031 0)
(10.1291 0.0476721 0)
(10.1183 0.0452012 0)
(10.1062 0.0404149 0)
(9.99715 0.00991896 0)
(10.009 0.0260985 0)
(10.0342 0.0383111 0)
(10.0554 0.0534003 0)
(10.0721 0.0649313 0)
(10.0875 0.070273 0)
(10.1015 0.0714258 0)
(10.1134 0.0706708 0)
(10.1236 0.0690926 0)
(10.1326 0.0671182 0)
(10.1404 0.0649471 0)
(10.1473 0.062702 0)
(10.1532 0.0604038 0)
(10.1585 0.0580325 0)
(10.1631 0.0554527 0)
(10.1674 0.0525258 0)
(10.1713 0.0487738 0)
(10.1742 0.0430784 0)
(9.99907 0.00681127 0)
(10.0082 0.0343079 0)
(10.0279 0.0483615 0)
(10.0436 0.0549055 0)
(10.0558 0.0583736 0)
(10.0678 0.0595553 0)
(10.0793 0.0593248 0)
(10.0897 0.0585821 0)
(10.0991 0.0576885 0)
(10.1077 0.0566783 0)
(10.1157 0.0555437 0)
(10.1232 0.0542797 0)
(10.1302 0.0528634 0)
(10.1369 0.0512383 0)
(10.1434 0.0492871 0)
(10.1495 0.0468537 0)
(10.1553 0.043616 0)
(10.1605 0.0392634 0)
(10.0002 0.00924537 0)
(10.008 0.0334146 0)
(10.0236 0.044084 0)
(10.0369 0.0484133 0)
(10.0478 0.051875 0)
(10.0585 0.0542728 0)
(10.069 0.0553045 0)
(10.0785 0.0554674 0)
(10.0871 0.0551544 0)
(10.0951 0.054496 0)
(10.1026 0.0535465 0)
(10.1097 0.0523486 0)
(10.1165 0.0509135 0)
(10.1231 0.0492121 0)
(10.1294 0.0471605 0)
(10.1354 0.0446406 0)
(10.1411 0.041484 0)
(10.1462 0.037568 0)
(10.0003 0.00912773 0)
(10.007 0.0287628 0)
(10.0201 0.0389028 0)
(10.0322 0.0440389 0)
(10.0425 0.0481421 0)
(10.0525 0.0509454 0)
(10.0622 0.0521903 0)
(10.0711 0.0524247 0)
(10.0793 0.0521124 0)
(10.0869 0.0514282 0)
(10.094 0.0504422 0)
(10.1008 0.0491997 0)
(10.1074 0.0477161 0)
(10.1136 0.045966 0)
(10.1196 0.0438866 0)
(10.1253 0.0413922 0)
(10.1306 0.0383931 0)
(10.1354 0.0348517 0)
(10.0004 0.00814687 0)
(10.006 0.0247159 0)
(10.0171 0.0348932 0)
(10.0283 0.0405415 0)
(10.0381 0.0446208 0)
(10.0475 0.0473353 0)
(10.0567 0.0486148 0)
(10.0652 0.0489305 0)
(10.073 0.0486955 0)
(10.0804 0.0480767 0)
(10.0873 0.0471423 0)
(10.0939 0.0459347 0)
(10.1002 0.0444723 0)
(10.1062 0.0427382 0)
(10.1119 0.0406919 0)
(10.1173 0.0382802 0)
(10.1223 0.035466 0)
(10.1267 0.0322669 0)
(10.0004 0.00721198 0)
(10.0052 0.0215231 0)
(10.0146 0.0312782 0)
(10.0248 0.0369605 0)
(10.0341 0.0408596 0)
(10.0429 0.0434888 0)
(10.0516 0.0448528 0)
(10.0598 0.0452942 0)
(10.0675 0.0451612 0)
(10.0746 0.0446193 0)
(10.0814 0.043742 0)
(10.0878 0.0425741 0)
(10.0939 0.0411403 0)
(10.0997 0.0394362 0)
(10.1052 0.0374423 0)
(10.1103 0.0351345 0)
(10.115 0.0325091 0)
(10.1192 0.0296129 0)
(10.0004 0.0063735 0)
(10.0045 0.0187501 0)
(10.0125 0.0277568 0)
(10.0216 0.0332994 0)
(10.0303 0.0370482 0)
(10.0387 0.039602 0)
(10.0469 0.0410193 0)
(10.0548 0.0415509 0)
(10.0622 0.0414935 0)
(10.0692 0.0410124 0)
(10.0758 0.0401858 0)
(10.082 0.0390613 0)
(10.088 0.0376686 0)
(10.0936 0.0360154 0)
(10.0989 0.0340994 0)
(10.1038 0.0319187 0)
(10.1083 0.029489 0)
(10.1123 0.0268697 0)
(10.0004 0.00558414 0)
(10.0039 0.0162534 0)
(10.0107 0.0243949 0)
(10.0189 0.0296895 0)
(10.0269 0.0332678 0)
(10.0348 0.0357043 0)
(10.0426 0.0371127 0)
(10.0501 0.0376894 0)
(10.0573 0.037682 0)
(10.064 0.0372486 0)
(10.0704 0.0364695 0)
(10.0765 0.0353938 0)
(10.0823 0.0340552 0)
(10.0877 0.0324714 0)
(10.0928 0.0306534 0)
(10.0975 0.0286144 0)
(10.1018 0.0263808 0)
(10.1057 0.0240157 0)
(10.0003 0.0048798 0)
(10.0034 0.0141537 0)
(10.0093 0.0214706 0)
(10.0167 0.026443 0)
(10.0242 0.0298203 0)
(10.0316 0.0321122 0)
(10.039 0.0334693 0)
(10.0461 0.0340543 0)
(10.053 0.0340733 0)
(10.0595 0.0336725 0)
(10.0657 0.0329323 0)
(10.0716 0.031903 0)
(10.0772 0.0306214 0)
(10.0825 0.0291125 0)
(10.0874 0.027396 0)
(10.0919 0.0254942 0)
(10.0961 0.0234376 0)
(10.0999 0.021289 0)
(10.0003 0.00421925 0)
(10.003 0.0122286 0)
(10.0082 0.0187087 0)
(10.0148 0.0232768 0)
(10.0217 0.026414 0)
(10.0287 0.0285381 0)
(10.0357 0.0298138 0)
(10.0425 0.0303813 0)
(10.0491 0.0304106 0)
(10.0554 0.030033 0)
(10.0614 0.0293274 0)
(10.0671 0.028345 0)
(10.0725 0.0271248 0)
(10.0775 0.0256967 0)
(10.0823 0.0240863 0)
(10.0866 0.0223215 0)
(10.0907 0.0204337 0)
(10.0943 0.0184843 0)
(10.0003 0.0035311 0)
(10.0026 0.0102219 0)
(10.0071 0.0157454 0)
(10.0129 0.019771 0)
(10.0193 0.0225736 0)
(10.0258 0.0244656 0)
(10.0323 0.0256072 0)
(10.0387 0.0261191 0)
(10.045 0.026136 0)
(10.051 0.0257706 0)
(10.0567 0.0250977 0)
(10.0622 0.024168 0)
(10.0674 0.0230213 0)
(10.0723 0.0216904 0)
(10.0768 0.0202049 0)
(10.081 0.0185951 0)
(10.0849 0.0168912 0)
(10.0884 0.0151509 0)
(10.0002 0.00281156 0)
(10.0022 0.0081296 0)
(10.0061 0.0125911 0)
(10.0112 0.0159334 0)
(10.0169 0.018289 0)
(10.0229 0.0198687 0)
(10.0289 0.0208109 0)
(10.035 0.0212166 0)
(10.0409 0.0211887 0)
(10.0466 0.0208184 0)
(10.0521 0.0201725 0)
(10.0573 0.0192991 0)
(10.0622 0.0182368 0)
(10.0669 0.0170188 0)
(10.0712 0.0156753 0)
(10.0752 0.0142362 0)
(10.0789 0.0127285 0)
(10.0824 0.0112041 0)
(10.0002 0.00206096 0)
(10.0019 0.0059547 0)
(10.0052 0.00925641 0)
(10.0097 0.0117729 0)
(10.0148 0.0135529 0)
(10.0202 0.0147229 0)
(10.0258 0.0153865 0)
(10.0314 0.0156223 0)
(10.037 0.015505 0)
(10.0424 0.0151033 0)
(10.0475 0.0144721 0)
(10.0525 0.0136535 0)
(10.0572 0.012682 0)
(10.0616 0.0115879 0)
(10.0657 0.0103987 0)
(10.0696 0.00914136 0)
(10.0732 0.00783792 0)
(10.0765 0.00653283 0)
(10.0002 0.00127778 0)
(10.0016 0.0036855 0)
(10.0045 0.00572742 0)
(10.0084 0.00727645 0)
(10.013 0.00834228 0)
(10.018 0.00898966 0)
(10.0231 0.00928284 0)
(10.0283 0.00927408 0)
(10.0335 0.00901227 0)
(10.0386 0.00854342 0)
(10.0435 0.00790676 0)
(10.0482 0.00713423 0)
(10.0526 0.00625285 0)
(10.0568 0.00528669 0)
(10.0608 0.00425766 0)
(10.0645 0.00318665 0)
(10.0679 0.00208978 0)
(10.0712 0.00100313 0)
(10.0002 0.000446642 0)
(10.0014 0.00127137 0)
(10.004 0.00193187 0)
(10.0075 0.00236367 0)
(10.0117 0.00256596 0)
(10.0163 0.00256217 0)
(10.0211 0.00237851 0)
(10.026 0.00203872 0)
(10.0309 0.00156645 0)
(10.0357 0.000984533 0)
(10.0404 0.000313257 0)
(10.0448 -0.000429847 0)
(10.0491 -0.00122908 0)
(10.0531 -0.00206988 0)
(10.0569 -0.00293868 0)
(10.0605 -0.00382235 0)
(10.0639 -0.0047116 0)
(10.067 -0.00557922 0)
(10.0001 -0.000475365 0)
(10.0014 -0.00141044 0)
(10.0038 -0.00230777 0)
(10.0071 -0.00316608 0)
(10.0112 -0.00398163 0)
(10.0156 -0.00476515 0)
(10.0202 -0.00553068 0)
(10.025 -0.00628573 0)
(10.0297 -0.00703287 0)
(10.0343 -0.00777401 0)
(10.0389 -0.00851094 0)
(10.0432 -0.0092443 0)
(10.0473 -0.00997327 0)
(10.0513 -0.010696 0)
(10.055 -0.0114098 0)
(10.0585 -0.0121113 0)
(10.0618 -0.0127989 0)
(10.0649 -0.0134554 0)
(10.0002 -0.00134852 0)
(10.0014 -0.00395965 0)
(10.004 -0.00635073 0)
(10.0075 -0.00843846 0)
(10.0117 -0.0102105 0)
(10.0163 -0.0117211 0)
(10.021 -0.0130266 0)
(10.0258 -0.0141615 0)
(10.0306 -0.0151538 0)
(10.0353 -0.0160329 0)
(10.0399 -0.0168238 0)
(10.0443 -0.0175446 0)
(10.0484 -0.0182084 0)
(10.0524 -0.0188249 0)
(10.0561 -0.0194017 0)
(10.0596 -0.0199435 0)
(10.0629 -0.0204553 0)
(10.066 -0.020928 0)
(10.0002 -0.00208861 0)
(10.0016 -0.00615528 0)
(10.0043 -0.00984967 0)
(10.0083 -0.0129448 0)
(10.0129 -0.0154478 0)
(10.0177 -0.0175086 0)
(10.0227 -0.0192253 0)
(10.0278 -0.0206378 0)
(10.0328 -0.0217912 0)
(10.0376 -0.0227431 0)
(10.0423 -0.0235426 0)
(10.0467 -0.0242244 0)
(10.051 -0.0248135 0)
(10.055 -0.02533 0)
(10.0587 -0.0257891 0)
(10.0623 -0.0262019 0)
(10.0656 -0.0265774 0)
(10.0688 -0.0269126 0)
(10.0002 -0.00277271 0)
(10.0017 -0.00828873 0)
(10.0049 -0.0133166 0)
(10.0094 -0.0173285 0)
(10.0145 -0.0204056 0)
(10.0198 -0.0228798 0)
(10.0251 -0.0249044 0)
(10.0305 -0.0265197 0)
(10.0357 -0.0277863 0)
(10.0408 -0.0287825 0)
(10.0456 -0.0295704 0)
(10.0502 -0.0301952 0)
(10.0546 -0.0306931 0)
(10.0586 -0.0310948 0)
(10.0625 -0.0314237 0)
(10.0661 -0.0316966 0)
(10.0694 -0.0319263 0)
(10.0726 -0.0321127 0)
(10.0001 -0.00338149 0)
(10.0017 -0.0103978 0)
(10.0055 -0.0167684 0)
(10.0109 -0.0216093 0)
(10.0166 -0.0252304 0)
(10.0223 -0.0280873 0)
(10.028 -0.0303077 0)
(10.0337 -0.031976 0)
(10.0392 -0.0332361 0)
(10.0445 -0.0342059 0)
(10.0496 -0.0349508 0)
(10.0543 -0.035515 0)
(10.0588 -0.0359391 0)
(10.063 -0.0362583 0)
(10.0669 -0.0364991 0)
(10.0706 -0.0366801 0)
(10.074 -0.0368162 0)
(10.0772 -0.0369129 0)
(10.0001 -0.00387048 0)
(10.0016 -0.0128898 0)
(10.0061 -0.0203172 0)
(10.0124 -0.0253779 0)
(10.0188 -0.0294334 0)
(10.025 -0.0328938 0)
(10.0312 -0.0354912 0)
(10.0373 -0.0372559 0)
(10.0431 -0.038453 0)
(10.0486 -0.0392837 0)
(10.0538 -0.0398456 0)
(10.0587 -0.0402041 0)
(10.0633 -0.0404177 0)
(10.0676 -0.0405343 0)
(10.0716 -0.0405865 0)
(10.0754 -0.0405959 0)
(10.0789 -0.0405758 0)
(10.0821 -0.0405229 0)
(9.9998 -0.0035482 0)
(10.0012 -0.0165489 0)
(10.007 -0.0255183 0)
(10.0141 -0.0296902 0)
(10.0207 -0.0330094 0)
(10.0273 -0.0364619 0)
(10.0342 -0.0393911 0)
(10.0409 -0.0415649 0)
(10.0473 -0.0431427 0)
(10.0532 -0.0442714 0)
(10.0588 -0.0450315 0)
(10.064 -0.0454976 0)
(10.0689 -0.0457463 0)
(10.0734 -0.0458423 0)
(10.0776 -0.0458332 0)
(10.0815 -0.0457523 0)
(10.0852 -0.0456253 0)
(10.0886 -0.045462 0)
(9.99829 9.12459e-07 0)
(9.99797 -0.0176184 0)
(10.0068 -0.031501 0)
(10.0162 -0.0375845 0)
(10.0234 -0.0402799 0)
(10.0303 -0.0418289 0)
(10.0379 -0.0427824 0)
(10.0455 -0.0434745 0)
(10.0527 -0.044072 0)
(10.0594 -0.0445825 0)
(10.0657 -0.0449731 0)
(10.0716 -0.0452552 0)
(10.0771 -0.0454509 0)
(10.0821 -0.0455882 0)
(10.0868 -0.0456812 0)
(10.0911 -0.0457464 0)
(10.0951 -0.0457889 0)
(10.0987 -0.0457767 0)
(9.99413 0.00277696 0)
(9.98996 -0.0075998 0)
(10.0032 -0.0228582 0)
(10.0185 -0.0396777 0)
(10.0302 -0.0530675 0)
(10.0403 -0.0608371 0)
(10.0501 -0.0643716 0)
(10.0593 -0.0656173 0)
(10.0678 -0.0657028 0)
(10.0756 -0.0650753 0)
(10.0829 -0.0640175 0)
(10.0897 -0.0627192 0)
(10.0959 -0.0613433 0)
(10.1016 -0.0599703 0)
(10.1067 -0.0586653 0)
(10.1114 -0.0574574 0)
(10.1157 -0.0563725 0)
(10.1196 -0.055363 0)
(9.9942 -0.0305071 0)
(9.99526 -0.0134565 0)
(10.0086 0.0215204 0)
(10.0272 0.0320193 0)
(10.047 0.0241458 0)
(10.0668 0.0116049 0)
(10.085 -0.000111892 0)
(10.1007 -0.0103263 0)
(10.1139 -0.0189647 0)
(10.1251 -0.0260359 0)
(10.1343 -0.0316348 0)
(10.1418 -0.0360042 0)
(10.1476 -0.0393754 0)
(10.152 -0.041966 0)
(10.155 -0.0439392 0)
(10.1569 -0.0454644 0)
(10.1579 -0.0466707 0)
(10.1579 -0.0477036 0)
(10.0368 -0.209412 0)
(10.1083 -0.365899 0)
(10.1423 -0.352746 0)
(10.1567 -0.298034 0)
(10.1697 -0.247622 0)
(10.182 -0.20679 0)
(10.1884 -0.174352 0)
(10.1867 -0.148988 0)
(10.1774 -0.129269 0)
(10.1619 -0.113744 0)
(10.1414 -0.101346 0)
(10.1169 -0.0913147 0)
(10.0894 -0.0831196 0)
(10.0598 -0.0763547 0)
(10.0288 -0.0707396 0)
(9.99692 -0.0660941 0)
(9.96472 -0.0622679 0)
(9.93284 -0.0595623 0)
(9.92866 0.765531 0)
(9.83924 0.742069 0)
(9.70534 0.524432 0)
(9.52635 0.348784 0)
(9.33186 0.227692 0)
(9.14063 0.146988 0)
(8.95883 0.093585 0)
(8.78893 0.0579915 0)
(8.63233 0.034127 0)
(8.48967 0.0181105 0)
(8.36032 0.00744631 0)
(8.24346 0.000468797 0)
(8.13792 -0.00407848 0)
(8.04264 -0.00693148 0)
(7.9565 -0.00860879 0)
(7.87853 -0.00954609 0)
(7.80737 -0.0100271 0)
(7.74265 -0.0106376 0)
(0.00229335 -0.00405988 -8.47838e-19)
(0.0104169 -0.0113038 7.4277e-19)
(0.0216212 -0.0159777 0)
(0.0339181 -0.0174403 0)
(0.0451521 -0.0163545 0)
(0.0543632 -0.0137671 -4.17475e-19)
(0.0612064 -0.0105233 0)
(0.0656272 -0.00714632 0)
(0.0677682 -0.00392813 0)
(0.0677295 -0.00106738 0)
(0.065817 0.00127081 3.74612e-19)
(0.0624624 0.00303556 0)
(0.0579618 0.00431461 0)
(0.0525355 0.00526612 0)
(0.0463203 0.00605553 0)
(0.039362 0.00682322 4.11219e-19)
(0.0316361 0.007674 0)
(0.0230755 0.00867213 0)
(0.0135843 0.00981755 0)
(0.00303642 0.0110029 0)
(-0.00868688 0.0120538 0)
(-0.0217556 0.0130012 0)
(-0.036342 0.0140074 0)
(-0.0525882 0.0151563 3.42749e-19)
(-0.0706394 0.0164827 -3.11012e-19)
(-0.0906302 0.0180005 2.82326e-19)
(-0.112672 0.0197081 2.56468e-19)
(-0.136847 0.0215846 0)
(-0.163203 0.0235833 0)
(-0.191732 0.0256289 -1.93862e-19)
(-0.222361 0.0276365 -1.77395e-19)
(-0.254989 0.0295538 0)
(-0.289472 0.0313385 0)
(-0.325645 0.032954 -1.38607e-19)
(-0.363324 0.0343704 0)
(-0.402309 0.0355679 0)
(-0.442397 0.0365371 1.11903e-19)
(-0.483383 0.0372774 0)
(-0.525074 0.0377968 9.88095e-20)
(-0.567289 0.038109 1.8666e-19)
(-0.609865 0.038232 0)
(-0.652655 0.038186 0)
(-0.695527 0.0379929 0)
(-0.738377 0.0376764 0)
(-0.781123 0.0372644 0)
(-0.823706 0.0367918 1.41012e-19)
(-0.866068 0.0362994 1.35734e-19)
(-0.908151 0.0358242 1.30891e-19)
(-0.950019 0.0353796 0)
(-0.991687 0.0349543 -1.2234e-19)
(-1.03316 0.0345447 0)
(-1.07445 0.0341489 1.15039e-19)
(-1.11556 0.0337655 1.11772e-19)
(-1.1565 0.0333932 0)
(-1.19727 0.0330306 0)
(-1.23788 0.032676 0)
(-1.27834 0.0323276 1.00687e-19)
(-1.31863 0.0319835 0)
(-1.35876 0.0316414 0)
(-1.39872 0.0312991 0)
(-1.43851 0.0309543 0)
(-1.4781 0.0306047 0)
(-1.5175 0.0302481 0)
(-1.55667 0.0298823 0)
(-1.59561 0.0295053 0)
(-1.63429 0.0291153 -8.3289e-20)
(-1.67269 0.0287104 0)
(-1.71077 0.0282892 0)
(-1.74851 0.0278501 7.89332e-20)
(-1.78588 0.027392 7.75915e-20)
(-1.82285 0.0269138 0)
(-1.85938 0.0264144 -7.50486e-20)
(-1.89543 0.0258933 7.38401e-20)
(-1.93097 0.0253496 0)
(-1.96595 0.0247832 -7.15325e-20)
(-2.00034 0.0241935 0)
(-2.0341 0.0235807 0)
(-2.06717 0.0229445 6.82998e-20)
(-2.09953 0.0222853 0)
(-2.13112 0.021603 -6.6266e-20)
(-2.16191 0.0208982 0)
(-2.19184 0.020171 6.43065e-20)
(-2.22088 0.0194222 6.33491e-20)
(-2.24898 0.018652 6.24038e-20)
(-2.27609 0.0178612 1.22937e-19)
(-2.30218 0.0170502 -1.21082e-19)
(-2.3272 0.0162198 0)
(-2.35111 0.0153701 0)
(-2.37386 0.0145015 0)
(-2.39541 0.0136134 -1.13751e-19)
(-2.41572 0.0127051 -1.11923e-19)
(-2.43475 0.0117751 1.10089e-19)
(-2.45245 0.0108208 0)
(-2.46878 0.00983825 -1.06396e-19)
(-2.48369 0.00882148 -1.0453e-19)
(-2.49713 0.00776252 -1.02649e-19)
(-2.50903 0.00665128 0)
(-2.51932 0.00547741 0)
(-2.52793 0.00423855 0)
(-2.53478 0.00295901 -9.49359e-20)
(-2.53977 0.0017056 0)
(-2.54276 0.000566148 0)
(-2.54384 -0.000416888 8.88638e-20)
(-2.54343 -0.00130961 0)
(-2.54144 -0.00218245 0)
(-2.53791 -0.00304566 8.23504e-20)
(-2.53284 -0.00390443 0)
(-2.52621 -0.00475937 0)
(-2.51801 -0.00561009 -7.53559e-20)
(-2.50824 -0.00645624 -7.29048e-20)
(-2.49688 -0.00729684 0)
(-2.48394 -0.00813145 6.78073e-20)
(-2.46941 -0.00895897 0)
(-2.45328 -0.00977903 -6.24312e-20)
(-2.43557 -0.0105906 0)
(-2.41626 -0.0113932 -5.6754e-20)
(-2.39538 -0.012186 -5.37951e-20)
(-2.37291 -0.0129685 0)
(-2.34888 -0.01374 0)
(-2.32329 -0.0145001 0)
(-2.29615 -0.0152482 0)
(-2.26748 -0.0159838 0)
(-2.23729 -0.0167057 0)
(-2.20561 -0.0174138 0)
(-2.17245 -0.0181068 -2.67994e-20)
(-2.13783 -0.0187849 2.29528e-20)
(-2.10178 -0.0194474 0)
(-2.06432 -0.0200946 0)
(-2.02548 -0.0207261 0)
(-1.9853 -0.0213428 0)
(-1.9438 -0.0219445 3.64547e-21)
(-1.90101 -0.0225315 0)
(-1.85696 -0.0231014 1.5248e-20)
(-1.81168 -0.0236553 -2.51765e-20)
(-1.76523 -0.0241919 0)
(-1.71763 -0.0247125 0)
(-1.66892 -0.0252198 0)
(-1.61915 -0.0257111 6.84979e-20)
(-1.56836 -0.0261849 8.03278e-20)
(-1.51658 -0.026643 0)
(-1.46388 -0.0270848 1.0535e-19)
(-1.41029 -0.027511 1.18595e-19)
(-1.35585 -0.0279218 -1.32371e-19)
(-1.30063 -0.0283174 0)
(-1.24465 -0.0286982 0)
(-1.18798 -0.0290644 -1.77225e-19)
(-1.13066 -0.0294166 0)
(-1.07273 -0.0297551 0)
(-1.01425 -0.0300806 0)
(-0.955259 -0.0303935 0)
(-0.89581 -0.0306948 2.66374e-19)
(-0.835947 -0.0309851 2.86863e-19)
(-0.775717 -0.0312655 0)
(-0.715163 -0.0315367 3.31082e-19)
(-0.654331 -0.0318001 0)
(-0.593261 -0.0320568 0)
(-0.531995 -0.0323083 4.06976e-19)
(-0.470572 -0.0325558 0)
(-0.40903 -0.0328007 4.65389e-19)
(-0.347404 -0.0330432 0)
(-0.285731 -0.0332844 0)
(-0.224048 -0.0335273 5.68119e-19)
(-0.162386 -0.0337914 0)
(-0.100778 -0.0340773 6.49469e-19)
(-0.039295 -0.0343082 0)
(0.0220499 -0.0340031 0)
(0.0832508 -0.0331228 0)
(0.144273 -0.0321791 -6.80813e-19)
(0.20507 -0.0312842 0)
(0.26562 -0.0304373 6.50883e-19)
(0.325919 -0.0296264 0)
(0.385944 -0.0288363 0)
(0.445642 -0.0280461 0)
(0.50489 -0.0272238 0)
(0.563508 -0.0263118 0)
(0.620922 -0.0252002 0)
(0.676855 -0.0236309 0)
(0.726751 -0.0209673 -1.13822e-18)
(0.776067 -0.0159007 0)
(0.775753 0.000776966 0)
(0.00525402 -0.0222471 2.07127e-18)
(0.0164628 -0.0358854 -1.2794e-18)
(0.0251729 -0.0370327 0)
(0.0312346 -0.0332132 4.05083e-19)
(0.0350451 -0.0271871 0)
(0.0367991 -0.0202306 1.55511e-19)
(0.036727 -0.0131096 -2.937e-19)
(0.0350118 -0.00628938 -2.84382e-19)
(0.0317758 -3.5959e-05 0)
(0.0271538 0.00548365 -2.75345e-19)
(0.0211641 0.0101799 -1.37141e-19)
(0.0137683 0.0140889 0)
(0.00495737 0.0173677 0)
(-0.00528307 0.0202261 0)
(-0.0169749 0.0228847 0)
(-0.0301518 0.0255364 -1.25701e-19)
(-0.0448665 0.0283231 0)
(-0.0611973 0.0313339 2.32554e-19)
(-0.0792486 0.034611 0)
(-0.0991245 0.0381686 0)
(-0.120881 0.0420003 -2.06224e-19)
(-0.144547 0.0460988 0)
(-0.170177 0.0504656 1.89849e-19)
(-0.197812 0.0550786 -9.10248e-20)
(-0.22744 0.0598792 8.70558e-20)
(-0.259002 0.0647774 -8.31473e-20)
(-0.292391 0.0696625 -7.93171e-20)
(-0.327459 0.0744182 0)
(-0.364015 0.0789421 0)
(-0.401848 0.083158 6.84492e-20)
(-0.440763 0.086991 -6.49444e-20)
(-0.480565 0.0903689 0)
(-0.521054 0.0932499 0)
(-0.562038 0.0956169 5.64455e-20)
(-0.603338 0.0974696 0)
(-0.644792 0.0988104 0)
(-0.686259 0.0996633 -4.95237e-20)
(-0.727622 0.100072 0)
(-0.768789 0.100086 4.56326e-20)
(-0.809692 0.0997595 -8.82153e-20)
(-0.85028 0.0991453 0)
(-0.890524 0.0982959 0)
(-0.930408 0.0972602 -1.59227e-19)
(-0.96993 0.0960829 -1.54418e-19)
(-1.0091 0.094805 -1.49965e-19)
(-1.04794 0.0934672 7.27877e-20)
(-1.08646 0.0921127 -7.11246e-20)
(-1.12469 0.0907815 -2.07731e-19)
(-1.16262 0.0894935 1.35034e-19)
(-1.20026 0.0882475 6.60723e-20)
(-1.23762 0.0870393 0)
(-1.2747 0.0858656 -6.31816e-20)
(-1.31152 0.0847224 6.15757e-20)
(-1.34807 0.0836056 0)
(-1.38438 0.0825105 0)
(-1.42043 0.0814324 0)
(-1.45622 0.0803664 -5.71748e-20)
(-1.49176 0.0793072 0)
(-1.52704 0.0782498 1.10007e-19)
(-1.56204 0.077189 0)
(-1.59676 0.0761197 1.06275e-19)
(-1.63118 0.0750371 0)
(-1.66529 0.0739365 -1.02822e-19)
(-1.69907 0.0728137 0)
(-1.7325 0.0716646 9.96056e-20)
(-1.76556 0.0704855 -4.89034e-20)
(-1.79822 0.0692732 0)
(-1.83046 0.0680249 -9.51491e-20)
(-1.86226 0.066738 -4.70019e-20)
(-1.89358 0.0654102 -4.63164e-20)
(-1.92439 0.06404 0)
(-1.95467 0.0626258 -4.47494e-20)
(-1.98439 0.0611665 -4.4351e-20)
(-2.0135 0.0596613 0)
(-2.04199 0.05811 4.31028e-20)
(-2.06981 0.0565122 -8.47678e-20)
(-2.09693 0.0548684 0)
(-2.12332 0.0531788 -4.12983e-20)
(-2.14894 0.0514443 0)
(-2.17376 0.0496656 1.20191e-19)
(-2.19774 0.0478441 0)
(-2.22085 0.0459807 -1.1674e-19)
(-2.24305 0.0440772 -3.83965e-20)
(-2.26431 0.0421349 3.76672e-20)
(-2.28459 0.0401556 7.42058e-20)
(-2.30386 0.0381409 -7.30761e-20)
(-2.32209 0.0360931 0)
(-2.33923 0.0340136 0)
(-2.35527 0.0319042 0)
(-2.37015 0.0297663 2.05911e-19)
(-2.38387 0.027601 6.75166e-20)
(-2.39638 0.0254092 -6.63219e-20)
(-2.40765 0.0231916 0)
(-2.41766 0.0209484 -6.37977e-20)
(-2.42638 0.0186791 6.26555e-20)
(-2.4338 0.0163829 6.14018e-20)
(-2.43989 0.0140579 0)
(-2.44467 0.0116992 0)
(-2.44813 0.00929966 0)
(-2.45034 0.00686279 5.62075e-20)
(-2.45136 0.00442668 0)
(-2.4513 0.00206996 -1.07042e-19)
(-2.45015 -0.000147232 -1.56276e-19)
(-2.44755 -0.00226709 1.01364e-19)
(-2.44349 -0.00434983 0)
(-2.43792 -0.00640652 4.78509e-20)
(-2.43083 -0.00844287 0)
(-2.42221 -0.0104591 8.9427e-20)
(-2.41204 -0.0124538 -4.32992e-20)
(-2.40032 -0.0144253 -4.17277e-20)
(-2.38703 -0.0163713 0)
(-2.37218 -0.0182899 -1.14758e-19)
(-2.35576 -0.0201788 7.32867e-20)
(-2.33777 -0.0220363 3.47296e-20)
(-2.31821 -0.02386 0)
(-2.29709 -0.0256484 3.12112e-20)
(-2.2744 -0.0273992 8.8728e-20)
(-2.25015 -0.029111 0)
(-2.22435 -0.0307818 5.19722e-20)
(-2.19702 -0.0324105 4.82042e-20)
(-2.16816 -0.0339954 4.43735e-20)
(-2.13778 -0.0355354 0)
(-2.10591 -0.0370281 0)
(-2.07256 -0.0384722 0)
(-2.03775 -0.0398656 -1.4566e-20)
(-2.00151 -0.0412074 -1.17656e-20)
(-1.96384 -0.0424962 0)
(-1.92479 -0.0437315 -1.5781e-20)
(-1.88437 -0.0449125 -1.14407e-20)
(-1.84263 -0.0460396 0)
(-1.79958 -0.0471126 -1.71724e-21)
(-1.75526 -0.0481321 3.92931e-21)
(-1.7097 -0.0490981 -7.45287e-21)
(-1.66293 -0.0500117 -1.03106e-20)
(-1.61499 -0.050867 0)
(-1.56593 -0.0516597 0)
(-1.51577 -0.0523962 0)
(-1.46456 -0.0530814 -3.14929e-20)
(-1.41234 -0.053711 3.44902e-20)
(-1.35915 -0.0542828 8.10726e-20)
(-1.30505 -0.054798 -4.66774e-20)
(-1.25007 -0.0552578 4.97742e-20)
(-1.19426 -0.0556629 5.71171e-20)
(-1.13767 -0.0560144 0)
(-1.08035 -0.0563132 0)
(-1.02233 -0.0565604 -7.10576e-20)
(-0.963683 -0.0567572 0)
(-0.904441 -0.056905 0)
(-0.844656 -0.0570052 1.77642e-19)
(-0.784376 -0.0570596 0)
(-0.723648 -0.0570699 9.91052e-20)
(-0.66252 -0.0570382 -1.07202e-19)
(-0.601037 -0.0569664 0)
(-0.539245 -0.0568571 1.1669e-19)
(-0.477187 -0.0567123 0)
(-0.414906 -0.0565349 0)
(-0.352443 -0.0563271 -1.37167e-19)
(-0.289836 -0.0560917 2.84326e-19)
(-0.227123 -0.0558307 -1.49561e-19)
(-0.16434 -0.0555456 0)
(-0.10152 -0.0552366 0)
(-0.0387013 -0.054906 1.66223e-19)
(0.024103 -0.0545538 0)
(0.0868688 -0.0541799 1.72739e-19)
(0.14959 -0.0537774 0)
(0.212224 -0.0531984 0)
(0.274659 -0.052402 0)
(0.336885 -0.0515491 1.825e-19)
(0.398929 -0.0507083 0)
(0.460781 -0.0498866 -1.86011e-19)
(0.522424 -0.0490726 0)
(0.583824 -0.0482455 0)
(0.64492 -0.0473714 3.79192e-19)
(0.705589 -0.0463942 -3.8188e-19)
(0.765644 -0.045207 0)
(0.824611 -0.0436087 0)
(0.882119 -0.0411035 0)
(0.935385 -0.0367545 1.18114e-18)
(0.987485 -0.0275704 0)
(1.01689 -0.00520865 -8.20431e-19)
(0.00487863 -0.043659 -3.43232e-22)
(0.0118568 -0.0536545 1.31492e-18)
(0.0149242 -0.0466845 0)
(0.0153783 -0.0366651 -5.70758e-19)
(0.0138887 -0.0261476 0)
(0.0107527 -0.0157631 0)
(0.00621219 -0.00580809 3.15843e-23)
(0.000397217 0.00352801 1.82118e-19)
(-0.0066469 0.012134 1.73557e-19)
(-0.0149355 0.0199766 1.66732e-19)
(-0.0245192 0.0270823 0)
(-0.0354728 0.0335301 0)
(-0.0478798 0.0394553 -1.52014e-19)
(-0.0618185 0.045037 -2.95374e-19)
(-0.0773549 0.0504685 2.86786e-19)
(-0.0945406 0.0559277 0)
(-0.113416 0.0615557 2.69759e-19)
(-0.134011 0.0674462 -1.30801e-19)
(-0.156349 0.0736452 0)
(-0.180442 0.0801586 2.45167e-19)
(-0.206268 0.0869731 1.187e-19)
(-0.233767 0.0940434 -2.29171e-19)
(-0.262845 0.101285 -1.10676e-19)
(-0.293378 0.108589 0)
(-0.325211 0.115826 2.05117e-19)
(-0.358165 0.122858 1.97232e-19)
(-0.392047 0.129541 0)
(-0.426665 0.135747 1.8203e-19)
(-0.461836 0.141362 0)
(-0.497395 0.146304 1.68041e-19)
(-0.533188 0.150521 8.08362e-20)
(-0.569076 0.153985 0)
(-0.604949 0.156685 0)
(-0.640721 0.158633 0)
(-0.676314 0.159866 0)
(-0.711679 0.160445 0)
(-0.746796 0.160436 0)
(-0.78166 0.159912 1.24998e-19)
(-0.816271 0.158952 -1.81517e-19)
(-0.85064 0.157631 0)
(-0.884781 0.156023 0)
(-0.91871 0.154196 0)
(-0.952447 0.15221 8.23835e-23)
(-0.986011 0.15012 1.04693e-19)
(-1.01942 0.14797 2.03954e-19)
(-1.05269 0.145802 -1.98938e-19)
(-1.08584 0.143649 -9.70539e-20)
(-1.11885 0.141533 9.49407e-20)
(-1.15174 0.139469 -1.22663e-22)
(-1.1845 0.137458 9.07197e-20)
(-1.21713 0.1355 0)
(-1.24963 0.133591 8.70229e-20)
(-1.28199 0.131725 -1.4292e-22)
(-1.31421 0.129896 0)
(-1.3463 0.128096 0)
(-1.37823 0.126319 -8.06044e-20)
(-1.41002 0.124554 0)
(-1.44164 0.122796 0)
(-1.47309 0.121036 7.62983e-20)
(-1.50435 0.119265 1.50352e-19)
(-1.53541 0.117478 -7.40993e-20)
(-1.56626 0.115666 0)
(-1.59688 0.113823 7.17465e-20)
(-1.62724 0.111944 0)
(-1.65733 0.110021 6.9214e-20)
(-1.68713 0.108051 6.8471e-20)
(-1.71661 0.106029 -1.3456e-19)
(-1.74574 0.10395 -6.61171e-20)
(-1.7745 0.101812 0)
(-1.80287 0.0996122 1.28649e-19)
(-1.8308 0.0973474 0)
(-1.85828 0.0950162 1.87507e-19)
(-1.88527 0.0926173 1.23086e-19)
(-1.91175 0.0901499 1.21293e-19)
(-1.93766 0.0876137 -1.19525e-19)
(-1.963 0.0850088 1.76799e-19)
(-1.98771 0.0823358 0)
(-2.01177 0.0795955 0)
(-2.03514 0.0767894 -1.12643e-19)
(-2.05779 0.0739189 -1.66547e-19)
(-2.07968 0.0709859 0)
(-2.10077 0.0679925 5.39052e-20)
(-2.12104 0.0649412 0)
(-2.14044 0.0618344 -1.56491e-19)
(-2.15895 0.058675 -1.7095e-22)
(-2.17652 0.0554659 1.5852e-22)
(-2.19312 0.05221 9.92445e-20)
(-2.20873 0.0489105 0)
(-2.2233 0.0455704 -9.5862e-20)
(-2.23681 0.0421925 -1.0493e-22)
(-2.24922 0.0387797 0)
(-2.26051 0.035335 0)
(-2.27065 0.0318615 0)
(-2.27961 0.0283627 8.72228e-20)
(-2.28738 0.0248425 0)
(-2.29393 0.0213064 0)
(-2.29926 0.0177616 0)
(-2.30335 0.0142184 0)
(-2.30621 0.0106914 0)
(-2.30784 0.00720147 7.61268e-20)
(-2.30823 0.00376909 0)
(-2.30732 0.00039509 7.20903e-20)
(-2.30507 -0.00294853 7.00488e-20)
(-2.30142 -0.0062756 -6.79817e-20)
(-2.29633 -0.00957781 0)
(-2.28978 -0.0128517 -6.3767e-20)
(-2.28177 -0.0160948 0)
(-2.27226 -0.0193041 -5.94402e-20)
(-2.26126 -0.0224763 5.72339e-20)
(-2.24874 -0.0256079 1.65438e-19)
(-2.23472 -0.0286952 0)
(-2.21917 -0.0317349 1.51831e-19)
(-2.20209 -0.0347234 4.86615e-20)
(-2.1835 -0.0376574 0)
(-2.16337 -0.0405337 8.73764e-20)
(-2.14172 -0.0433491 8.25876e-20)
(-2.11856 -0.0461007 -1.16272e-19)
(-2.09388 -0.0487855 0)
(-2.06769 -0.0514009 -3.3566e-20)
(-2.04001 -0.0539445 -3.10414e-20)
(-2.01084 -0.0564139 -8.62732e-20)
(-1.9802 -0.0588067 0)
(-1.9481 -0.06112 0)
(-1.91457 -0.0633512 0)
(-1.87961 -0.0654977 -1.89413e-20)
(-1.84325 -0.0675576 0)
(-1.80552 -0.0695289 0)
(-1.76642 -0.0714102 9.90637e-21)
(-1.72601 -0.0732004 7.15696e-21)
(-1.68429 -0.0748991 0)
(-1.6413 -0.0765065 0)
(-1.59708 -0.0780234 -2.43177e-21)
(-1.55164 -0.07945 0)
(-1.50504 -0.0807857 1.3786e-20)
(-1.45729 -0.0820259 1.83481e-20)
(-1.40844 -0.0831663 0)
(-1.35853 -0.0842117 0)
(-1.30759 -0.0851662 -3.56683e-20)
(-1.25567 -0.0860272 -1.24245e-21)
(-1.20281 -0.0867925 -1.25903e-21)
(-1.14905 -0.087463 0)
(-1.09444 -0.0880402 -1.19561e-19)
(-1.03902 -0.0885256 0)
(-0.982844 -0.0889205 0)
(-0.92595 -0.0892264 0)
(-0.868388 -0.0894452 8.4259e-20)
(-0.810205 -0.0895788 0)
(-0.751448 -0.0896293 -1.89777e-19)
(-0.692165 -0.0895989 -1.02253e-19)
(-0.632403 -0.0894905 0)
(-0.572209 -0.0893067 -1.14272e-19)
(-0.511629 -0.0890507 0)
(-0.450708 -0.0887256 0)
(-0.38949 -0.0883353 -3.94071e-19)
(-0.32802 -0.0878829 2.7376e-19)
(-0.266337 -0.0873727 0)
(-0.204482 -0.0868083 2.97651e-19)
(-0.142494 -0.0861931 -1.56183e-19)
(-0.0804081 -0.0855305 0)
(-0.0182573 -0.084825 0)
(0.0439299 -0.0840812 0)
(0.106121 -0.0833023 -5.24013e-19)
(0.168284 -0.0824836 0)
(0.230389 -0.0816261 -1.82039e-19)
(0.292424 -0.0807366 0)
(0.354384 -0.0798092 0)
(0.416237 -0.0788384 0)
(0.477966 -0.0778434 0)
(0.539562 -0.0768479 0)
(0.601001 -0.0758525 0)
(0.662255 -0.0748425 -4.02797e-19)
(0.723284 -0.07379 0)
(0.784025 -0.0726466 -2.07599e-19)
(0.844363 -0.07133 6.27742e-19)
(0.904125 -0.0696881 0)
(0.962922 -0.067435 0)
(1.02048 -0.0639689 -4.31799e-19)
(1.07495 -0.0581142 -4.38945e-19)
(1.12933 -0.0471513 4.44296e-19)
(1.1713 -0.0240113 4.57616e-19)
(0.00225 -0.0562404 -3.1378e-18)
(0.00331384 -0.057484 -1.64825e-18)
(0.00105691 -0.0446286 -6.42471e-19)
(-0.00299735 -0.0306628 -2.28795e-19)
(-0.00844746 -0.0170942 0)
(-0.015097 -0.00413701 3.21796e-19)
(-0.0228387 0.00815375 -1.45777e-19)
(-0.0316428 0.0197427 0)
(-0.0415352 0.0306185 -1.28562e-19)
(-0.0525731 0.0408034 0)
(-0.0648333 0.0503572 2.38422e-19)
(-0.0784012 0.0593776 0)
(-0.0933604 0.0679976 1.12491e-19)
(-0.109781 0.0763718 2.18768e-19)
(-0.127712 0.0846561 -2.12642e-19)
(-0.147176 0.0929863 0)
(-0.16817 0.101462 -2.0044e-19)
(-0.190663 0.110134 0)
(-0.214599 0.119009 0)
(-0.239901 0.128045 -1.8229e-19)
(-0.266462 0.137161 0)
(-0.29415 0.14625 7.62733e-23)
(-0.32281 0.155185 0)
(-0.352274 0.163829 0)
(-0.382371 0.172039 -4.64148e-23)
(-0.41293 0.179684 -1.47322e-19)
(-0.443795 0.186648 -1.41887e-19)
(-0.474828 0.19284 -1.36694e-19)
(-0.505914 0.198197 0)
(-0.53696 0.202683 -2.53837e-19)
(-0.567892 0.206282 0)
(-0.598656 0.209007 -1.18043e-19)
(-0.629221 0.210888 0)
(-0.659572 0.211978 0)
(-0.689716 0.212343 1.06384e-19)
(-0.719673 0.212067 0)
(-0.749463 0.211238 -9.97523e-20)
(-0.779111 0.209942 2.34064e-23)
(-0.808643 0.208259 1.87791e-19)
(-0.838084 0.206266 -1.82493e-19)
(-0.867457 0.204032 0)
(-0.896783 0.20162 0)
(-0.926078 0.199087 -8.41823e-20)
(-0.955356 0.196479 0)
(-0.984624 0.193835 -8.0135e-20)
(-1.01389 0.191189 7.82737e-20)